
     Program BANDS v.6.4.1 starts on 13Dec2019 at  4:36:12 

     This program is part of the open-source Quantum ESPRESSO suite
     for quantum simulation of materials; please cite
         "P. Giannozzi et al., J. Phys.:Condens. Matter 21 395502 (2009);
         "P. Giannozzi et al., J. Phys.:Condens. Matter 29 465901 (2017);
          URL http://www.quantum-espresso.org", 
     in publications or presentations arising from this work. More details at
     http://www.quantum-espresso.org/quote

     Parallel version (MPI), running on     4 processors

     MPI processes distributed on     1 nodes
     R & G space division:  proc/nbgrp/npool/nimage =       4

     Reading data from directory:
     ./outdir/LaH2.save/

     IMPORTANT: XC functional enforced from input :
     Exchange-correlation      = PBE ( 1  4  3  4 0 0)
     Any further DFT definition will be discarded
     Please, verify this is what you really want

               file La.pbe-spdfn-kjpaw_psl.1.0.0.UPF: wavefunction(s)  5S 5D 4F renormalized
               file H.pbe-kjpaw_psl.1.0.0.UPF: wavefunction(s)  1S renormalized

     Parallelization info
     --------------------
     sticks:   dense  smooth     PW     G-vecs:    dense   smooth      PW
     Min         159     159     49                 2621     2621     451
     Max         160     160     50                 2624     2624     453
     Sum         637     637    199                10489    10489    1807


     Check: negative core charge=   -0.000011
     high-symmetry point:  0.0000 0.0000 1.0000   x coordinate   0.0000
     high-symmetry point:  0.0000 0.0000 0.0000   x coordinate   1.0000
     high-symmetry point:  0.5000 0.5000 0.5000   x coordinate   1.8660
     high-symmetry point:  0.0000 0.5000 1.0000   x coordinate   2.5731
     high-symmetry point:  0.0000 0.7500 0.7500   x coordinate   2.9267
     high-symmetry point:  0.0000 0.0000 0.0000   x coordinate   3.9873

     Plottable bands (eV) written to file LaH2.bands.dat.gnu
     Bands written to file LaH2.bands.dat

 **************************************************************************

                    xk=(   0.00000,   0.00000,   1.00000  )

     point group D_2d (-42m)
     there are  5 classes
     the character table:

       E     2S4   C2    2C2'  2s_d 
A_1    1.00  1.00  1.00  1.00  1.00
A_2    1.00  1.00  1.00 -1.00 -1.00
B_1    1.00 -1.00  1.00  1.00 -1.00
B_2    1.00 -1.00  1.00 -1.00  1.00
E      2.00  0.00 -2.00  0.00  0.00

     the symmetry operations in each class and the name of the first element:

     E        1
                                                                 
     2S4      7    8
                                                                 
     C2       2
                                                                 
     2C2'     3    4
                                                                 
     2s_d     5    6
                                                                 

     Band symmetry, D_2d (-42m) point group:

     e(  1 -  1) =    -27.57925  eV     1   --> B_2  X_3  W_2  
     e(  2 -  2) =    -24.19472  eV     1   --> A_1  X_1  W_1  
     e(  3 -  3) =    -23.30587  eV     1   --> A_1  X_1  W_1  
     e(  4 -  4) =    -22.09392  eV     1   --> B_1  X_2  W_1' 
     e(  5 -  6) =    -22.08626  eV     2   --> E    X_5  W_3  
     e(  7 -  7) =     -7.34858  eV     1   --> B_2  X_3  W_2  
     e(  8 -  9) =     -6.87643  eV     2   --> E    X_5  W_3  
     e( 10 - 10) =      6.20949  eV     1   --> B_2  X_3  W_2  
     e( 11 - 11) =      8.73233  eV     1   --> A_1  X_1  W_1  
     e( 12 - 12) =     10.61888  eV     1   --> B_2  X_3  W_2  
     e( 13 - 13) =     10.89940  eV     1   --> A_1  X_1  W_1  
     e( 14 - 15) =     10.95669  eV     2   --> E    X_5  W_3  
     e( 16 - 17) =     11.12262  eV     2   --> E    X_5  W_3  
     e( 18 - 18) =     11.21175  eV     1   --> A_2  X_4  W_2' 
     e( 19 - 19) =     11.92985  eV     1   --> B_2  X_3  W_2  
     e( 20 - 20) =     14.77950  eV     1   --> B_1  X_2  W_1' 
     e( 21 - 22) =     15.01404  eV     2   --> E    X_5  W_3  

 **************************************************************************

 **************************************************************************

                    xk=(   0.00000,   0.00000,   0.95000  )

     point group C_2v (mm2) 
     there are  4 classes
     the character table:

       E     C2    s_v   s_v' 
A_1    1.00  1.00  1.00  1.00
A_2    1.00  1.00 -1.00 -1.00
B_1    1.00 -1.00  1.00 -1.00
B_2    1.00 -1.00 -1.00  1.00

     the symmetry operations in each class and the name of the first element:

     E        1
                                                                 
     C2       2
                                                                 
     s_v      3
                                                                 
     s_v'     4
                                                                 

     Band symmetry, C_2v (mm2)  point group:

     e(  1 -  1) =    -27.57197  eV     1   --> A_1  D_1  S_1  
     e(  2 -  2) =    -25.09178  eV     1   --> A_1  D_1  S_1  
     e(  3 -  3) =    -23.30664  eV     1   --> A_1  D_1  S_1  
     e(  4 -  5) =    -23.11980  eV     2   --> B_1  D_3  S_3  
     e(  4 -  5) =    -23.11980  eV     2   --> B_2  D_4  S_4  
     e(  6 -  6) =    -22.32292  eV     1   --> A_2  D_2  S_2  
     e(  7 -  7) =     -7.34467  eV     1   --> A_1  D_1  S_1  
     e(  8 -  9) =     -6.87492  eV     2   --> B_1  D_3  S_3  
     e(  8 -  9) =     -6.87492  eV     2   --> B_2  D_4  S_4  
     e( 10 - 10) =      6.20886  eV     1   --> A_1  D_1  S_1  
     e( 11 - 11) =      8.74111  eV     1   --> A_1  D_1  S_1  
     e( 12 - 12) =     10.61067  eV     1   --> A_1  D_1  S_1  
     e( 13 - 13) =     10.90285  eV     1   --> A_1  D_1  S_1  
     e( 14 - 15) =     10.94227  eV     2   --> B_1  D_3  S_3  
     e( 14 - 15) =     10.94227  eV     2   --> B_2  D_4  S_4  
     e( 16 - 17) =     11.07981  eV     2   --> B_1  D_3  S_3  
     e( 16 - 17) =     11.07981  eV     2   --> B_2  D_4  S_4  
     e( 18 - 18) =     11.17454  eV     1   --> A_2  D_2  S_2  
     e( 19 - 19) =     11.91498  eV     1   --> A_1  D_1  S_1  
     e( 20 - 20) =     14.76870  eV     1   --> A_2  D_2  S_2  
     e( 21 - 22) =     14.94972  eV     2   --> B_1  D_3  S_3  
     e( 21 - 22) =     14.94972  eV     2   --> B_2  D_4  S_4  

 **************************************************************************

 **************************************************************************

                    xk=(   0.00000,   0.00000,   0.90000  )

     Band symmetry, C_2v (mm2)  point group:

     e(  1 -  1) =    -27.95894  eV     1   --> A_1  D_1  S_1  
     e(  2 -  2) =    -27.01732  eV     1   --> A_1  D_1  S_1  
     e(  3 -  4) =    -26.07021  eV     2   --> B_1  D_3  S_3  
     e(  3 -  4) =    -26.07021  eV     2   --> B_2  D_4  S_4  
     e(  5 -  5) =    -23.61450  eV     1   --> A_2  D_2  S_2  
     e(  6 -  6) =    -23.30872  eV     1   --> A_1  D_1  S_1  
     e(  7 -  7) =     -7.33303  eV     1   --> A_1  D_1  S_1  
     e(  8 -  9) =     -6.87043  eV     2   --> B_1  D_3  S_3  
     e(  8 -  9) =     -6.87043  eV     2   --> B_2  D_4  S_4  
     e( 10 - 10) =      6.20621  eV     1   --> A_1  D_1  S_1  
     e( 11 - 11) =      8.76706  eV     1   --> A_1  D_1  S_1  
     e( 12 - 12) =     10.54733  eV     1   --> A_1  D_1  S_1  
     e( 13 - 13) =     10.85482  eV     1   --> A_1  D_1  S_1  
     e( 14 - 15) =     10.88992  eV     2   --> B_1  D_3  S_3  
     e( 14 - 15) =     10.88992  eV     2   --> B_2  D_4  S_4  
     e( 16 - 17) =     11.01992  eV     2   --> B_1  D_3  S_3  
     e( 16 - 17) =     11.01992  eV     2   --> B_2  D_4  S_4  
     e( 18 - 18) =     11.04199  eV     1   --> A_2  D_2  S_2  
     e( 19 - 19) =     11.83981  eV     1   --> A_1  D_1  S_1  
     e( 20 - 20) =     14.73660  eV     1   --> A_2  D_2  S_2  
     e( 21 - 22) =     14.77920  eV     2   --> B_1  D_3  S_3  
     e( 21 - 22) =     14.77920  eV     2   --> B_2  D_4  S_4  

 **************************************************************************

 **************************************************************************

                    xk=(   0.00000,   0.00000,   0.85000  )

     Band symmetry, C_2v (mm2)  point group:

     e(  1 -  1) =    -27.43679  eV     1   --> A_1  D_1  S_1  
     e(  2 -  2) =    -25.81583  eV     1   --> A_1  D_1  S_1  
     e(  3 -  3) =    -23.31195  eV     1   --> A_1  D_1  S_1  
     e(  4 -  4) =    -22.80974  eV     1   --> A_2  D_2  S_2  
     e(  5 -  6) =    -22.61797  eV     2   --> B_1  D_3  S_3  
     e(  5 -  6) =    -22.61797  eV     2   --> B_2  D_4  S_4  
     e(  7 -  7) =     -7.31370  eV     1   --> A_1  D_1  S_1  
     e(  8 -  9) =     -6.86303  eV     2   --> B_1  D_3  S_3  
     e(  8 -  9) =     -6.86303  eV     2   --> B_2  D_4  S_4  
     e( 10 - 10) =      6.20121  eV     1   --> A_1  D_1  S_1  
     e( 11 - 11) =      8.80856  eV     1   --> A_1  D_1  S_1  
     e( 12 - 12) =     10.52484  eV     1   --> A_1  D_1  S_1  
     e( 13 - 13) =     10.93794  eV     1   --> A_1  D_1  S_1  
     e( 14 - 15) =     10.93826  eV     2   --> B_1  D_3  S_3  
     e( 14 - 15) =     10.93826  eV     2   --> B_2  D_4  S_4  
     e( 16 - 17) =     11.12122  eV     2   --> B_1  D_3  S_3  
     e( 16 - 17) =     11.12122  eV     2   --> B_2  D_4  S_4  
     e( 18 - 18) =     11.15918  eV     1   --> A_2  D_2  S_2  
     e( 19 - 19) =     11.79740  eV     1   --> A_1  D_1  S_1  
     e( 20 - 21) =     14.56417  eV     2   --> B_1  D_3  S_3  
     e( 20 - 21) =     14.56417  eV     2   --> B_2  D_4  S_4  
     e( 22 - 22) =     14.69243  eV     1   --> A_2  D_2  S_2  

 **************************************************************************

 **************************************************************************

                    xk=(   0.00000,   0.00000,   0.80000  )

     Band symmetry, C_2v (mm2)  point group:

     e(  1 -  1) =    -27.35170  eV     1   --> A_1  D_1  S_1  
     e(  2 -  2) =    -25.16925  eV     1   --> A_2  D_2  S_2  
     e(  3 -  3) =    -24.69240  eV     1   --> A_1  D_1  S_1  
     e(  4 -  5) =    -23.77508  eV     2   --> B_1  D_3  S_3  
     e(  4 -  5) =    -23.77508  eV     2   --> B_2  D_4  S_4  
     e(  6 -  6) =    -23.31639  eV     1   --> A_1  D_1  S_1  
     e(  7 -  7) =     -7.28713  eV     1   --> A_1  D_1  S_1  
     e(  8 -  9) =     -6.85293  eV     2   --> B_1  D_3  S_3  
     e(  8 -  9) =     -6.85293  eV     2   --> B_2  D_4  S_4  
     e( 10 - 10) =      6.19014  eV     1   --> A_1  D_1  S_1  
     e( 11 - 11) =      8.86174  eV     1   --> A_1  D_1  S_1  
     e( 12 - 12) =     10.46698  eV     1   --> A_1  D_1  S_1  
     e( 13 - 14) =     10.89834  eV     2   --> B_1  D_3  S_3  
     e( 13 - 14) =     10.89834  eV     2   --> B_2  D_4  S_4  
     e( 15 - 15) =     10.96962  eV     1   --> A_1  D_1  S_1  
     e( 16 - 16) =     10.99454  eV     1   --> A_2  D_2  S_2  
     e( 17 - 18) =     11.17076  eV     2   --> B_1  D_3  S_3  
     e( 17 - 18) =     11.17076  eV     2   --> B_2  D_4  S_4  
     e( 19 - 19) =     11.73074  eV     1   --> A_1  D_1  S_1  
     e( 20 - 21) =     14.30037  eV     2   --> B_1  D_3  S_3  
     e( 20 - 21) =     14.30037  eV     2   --> B_2  D_4  S_4  
     e( 22 - 22) =     14.62545  eV     1   --> A_2  D_2  S_2  

 **************************************************************************

 **************************************************************************

                    xk=(   0.00000,   0.00000,   0.75000  )

     Band symmetry, C_2v (mm2)  point group:

     e(  1 -  1) =    -27.31679  eV     1   --> A_1  D_1  S_1  
     e(  2 -  2) =    -25.31285  eV     1   --> A_1  D_1  S_1  
     e(  3 -  3) =    -24.52320  eV     1   --> A_2  D_2  S_2  
     e(  4 -  4) =    -23.32200  eV     1   --> A_1  D_1  S_1  
     e(  5 -  6) =    -22.69293  eV     2   --> B_1  D_3  S_3  
     e(  5 -  6) =    -22.69293  eV     2   --> B_2  D_4  S_4  
     e(  7 -  7) =     -7.25377  eV     1   --> A_1  D_1  S_1  
     e(  8 -  9) =     -6.84032  eV     2   --> B_1  D_3  S_3  
     e(  8 -  9) =     -6.84032  eV     2   --> B_2  D_4  S_4  
     e( 10 - 10) =      6.17073  eV     1   --> A_1  D_1  S_1  
     e( 11 - 11) =      8.92113  eV     1   --> A_1  D_1  S_1  
     e( 12 - 12) =     10.41828  eV     1   --> A_1  D_1  S_1  
     e( 13 - 14) =     10.91042  eV     2   --> B_1  D_3  S_3  
     e( 13 - 14) =     10.91042  eV     2   --> B_2  D_4  S_4  
     e( 15 - 15) =     10.98407  eV     1   --> A_1  D_1  S_1  
     e( 16 - 16) =     11.07446  eV     1   --> A_2  D_2  S_2  
     e( 17 - 18) =     11.17788  eV     2   --> B_1  D_3  S_3  
     e( 17 - 18) =     11.17788  eV     2   --> B_2  D_4  S_4  
     e( 19 - 19) =     11.67995  eV     1   --> A_1  D_1  S_1  
     e( 20 - 21) =     14.02660  eV     2   --> B_1  D_3  S_3  
     e( 20 - 21) =     14.02660  eV     2   --> B_2  D_4  S_4  
     e( 22 - 22) =     14.55061  eV     1   --> A_2  D_2  S_2  

 **************************************************************************

 **************************************************************************

                    xk=(   0.00000,   0.00000,   0.70000  )

     Band symmetry, C_2v (mm2)  point group:

     e(  1 -  1) =    -26.47150  eV     1   --> A_1  D_1  S_1  
     e(  2 -  2) =    -25.78246  eV     1   --> A_1  D_1  S_1  
     e(  3 -  3) =    -24.93354  eV     1   --> A_2  D_2  S_2  
     e(  4 -  5) =    -24.29978  eV     2   --> B_1  D_3  S_3  
     e(  4 -  5) =    -24.29978  eV     2   --> B_2  D_4  S_4  
     e(  6 -  6) =    -23.32861  eV     1   --> A_1  D_1  S_1  
     e(  7 -  7) =     -7.21422  eV     1   --> A_1  D_1  S_1  
     e(  8 -  9) =     -6.82552  eV     2   --> B_1  D_3  S_3  
     e(  8 -  9) =     -6.82552  eV     2   --> B_2  D_4  S_4  
     e( 10 - 10) =      6.14006  eV     1   --> A_1  D_1  S_1  
     e( 11 - 11) =      8.98298  eV     1   --> A_1  D_1  S_1  
     e( 12 - 12) =     10.40642  eV     1   --> A_1  D_1  S_1  
     e( 13 - 14) =     10.92007  eV     2   --> B_1  D_3  S_3  
     e( 13 - 14) =     10.92007  eV     2   --> B_2  D_4  S_4  
     e( 15 - 15) =     11.01321  eV     1   --> A_2  D_2  S_2  
     e( 16 - 16) =     11.01898  eV     1   --> A_1  D_1  S_1  
     e( 17 - 18) =     11.07929  eV     2   --> B_1  D_3  S_3  
     e( 17 - 18) =     11.07929  eV     2   --> B_2  D_4  S_4  
     e( 19 - 19) =     11.68298  eV     1   --> A_1  D_1  S_1  
     e( 20 - 21) =     13.74132  eV     2   --> B_1  D_3  S_3  
     e( 20 - 21) =     13.74132  eV     2   --> B_2  D_4  S_4  
     e( 22 - 22) =     14.45830  eV     1   --> A_2  D_2  S_2  

 **************************************************************************

 **************************************************************************

                    xk=(   0.00000,   0.00000,   0.65000  )

     Band symmetry, C_2v (mm2)  point group:

     e(  1 -  1) =    -25.73538  eV     1   --> A_1  D_1  S_1  
     e(  2 -  2) =    -24.94311  eV     1   --> A_2  D_2  S_2  
     e(  3 -  4) =    -23.62202  eV     2   --> B_1  D_3  S_3  
     e(  3 -  4) =    -23.62202  eV     2   --> B_2  D_4  S_4  
     e(  5 -  5) =    -23.33601  eV     1   --> A_1  D_1  S_1  
     e(  6 -  6) =    -21.53325  eV     1   --> A_1  D_1  S_1  
     e(  7 -  7) =     -7.16909  eV     1   --> A_1  D_1  S_1  
     e(  8 -  9) =     -6.80885  eV     2   --> B_1  D_3  S_3  
     e(  8 -  9) =     -6.80885  eV     2   --> B_2  D_4  S_4  
     e( 10 - 10) =      6.09300  eV     1   --> A_1  D_1  S_1  
     e( 11 - 11) =      9.04550  eV     1   --> A_1  D_1  S_1  
     e( 12 - 12) =     10.47152  eV     1   --> A_1  D_1  S_1  
     e( 13 - 14) =     10.91871  eV     2   --> B_1  D_3  S_3  
     e( 13 - 14) =     10.91871  eV     2   --> B_2  D_4  S_4  
     e( 15 - 15) =     11.01841  eV     1   --> A_2  D_2  S_2  
     e( 16 - 16) =     11.04295  eV     1   --> A_1  D_1  S_1  
     e( 17 - 18) =     11.12936  eV     2   --> B_1  D_3  S_3  
     e( 17 - 18) =     11.12936  eV     2   --> B_2  D_4  S_4  
     e( 19 - 19) =     11.77101  eV     1   --> A_1  D_1  S_1  
     e( 20 - 21) =     13.47116  eV     2   --> B_1  D_3  S_3  
     e( 20 - 21) =     13.47116  eV     2   --> B_2  D_4  S_4  
     e( 22 - 22) =     14.35649  eV     1   --> A_2  D_2  S_2  

 **************************************************************************

 **************************************************************************

                    xk=(   0.00000,   0.00000,   0.60000  )

     Band symmetry, C_2v (mm2)  point group:

     e(  1 -  2) =    -27.23919  eV     2   --> B_1  D_3  S_3  
     e(  1 -  2) =    -27.23919  eV     2   --> B_2  D_4  S_4  
     e(  3 -  3) =    -27.22273  eV     1   --> A_1  D_1  S_1  
     e(  4 -  4) =    -25.54694  eV     1   --> A_2  D_2  S_2  
     e(  5 -  5) =    -23.34394  eV     1   --> A_1  D_1  S_1  
     e(  6 -  6) =    -21.92420  eV     1   --> A_1  D_1  S_1  
     e(  7 -  7) =     -7.11944  eV     1   --> A_1  D_1  S_1  
     e(  8 -  9) =     -6.79076  eV     2   --> B_1  D_3  S_3  
     e(  8 -  9) =     -6.79076  eV     2   --> B_2  D_4  S_4  
     e( 10 - 10) =      6.02570  eV     1   --> A_1  D_1  S_1  
     e( 11 - 11) =      9.09694  eV     1   --> A_1  D_1  S_1  
     e( 12 - 12) =     10.46248  eV     1   --> A_1  D_1  S_1  
     e( 13 - 13) =     10.87834  eV     1   --> A_1  D_1  S_1  
     e( 14 - 15) =     10.89026  eV     2   --> B_1  D_3  S_3  
     e( 14 - 15) =     10.89026  eV     2   --> B_2  D_4  S_4  
     e( 16 - 16) =     10.95022  eV     1   --> A_2  D_2  S_2  
     e( 17 - 18) =     11.04239  eV     2   --> B_1  D_3  S_3  
     e( 17 - 18) =     11.04239  eV     2   --> B_2  D_4  S_4  
     e( 19 - 19) =     11.80759  eV     1   --> A_1  D_1  S_1  
     e( 20 - 21) =     13.19903  eV     2   --> B_1  D_3  S_3  
     e( 20 - 21) =     13.19903  eV     2   --> B_2  D_4  S_4  
     e( 22 - 22) =     14.24763  eV     1   --> A_2  D_2  S_2  

 **************************************************************************

 **************************************************************************

                    xk=(   0.00000,   0.00000,   0.55000  )

     Band symmetry, C_2v (mm2)  point group:

     e(  1 -  2) =    -27.47029  eV     2   --> B_1  D_3  S_3  
     e(  1 -  2) =    -27.47029  eV     2   --> B_2  D_4  S_4  
     e(  3 -  3) =    -27.19425  eV     1   --> A_1  D_1  S_1  
     e(  4 -  4) =    -25.56757  eV     1   --> A_2  D_2  S_2  
     e(  5 -  5) =    -24.78215  eV     1   --> A_1  D_1  S_1  
     e(  6 -  6) =    -23.35223  eV     1   --> A_1  D_1  S_1  
     e(  7 -  7) =     -7.06615  eV     1   --> A_1  D_1  S_1  
     e(  8 -  9) =     -6.77160  eV     2   --> B_1  D_3  S_3  
     e(  8 -  9) =     -6.77160  eV     2   --> B_2  D_4  S_4  
     e( 10 - 10) =      5.93863  eV     1   --> A_1  D_1  S_1  
     e( 11 - 11) =      9.14734  eV     1   --> A_1  D_1  S_1  
     e( 12 - 12) =     10.43390  eV     1   --> A_1  D_1  S_1  
     e( 13 - 14) =     10.88382  eV     2   --> B_1  D_3  S_3  
     e( 13 - 14) =     10.88382  eV     2   --> B_2  D_4  S_4  
     e( 15 - 15) =     10.89656  eV     1   --> A_1  D_1  S_1  
     e( 16 - 16) =     10.95634  eV     1   --> A_2  D_2  S_2  
     e( 17 - 18) =     11.01335  eV     2   --> B_1  D_3  S_3  
     e( 17 - 18) =     11.01335  eV     2   --> B_2  D_4  S_4  
     e( 19 - 19) =     11.78992  eV     1   --> A_1  D_1  S_1  
     e( 20 - 21) =     12.94318  eV     2   --> B_1  D_3  S_3  
     e( 20 - 21) =     12.94318  eV     2   --> B_2  D_4  S_4  
     e( 22 - 22) =     14.13493  eV     1   --> A_2  D_2  S_2  

 **************************************************************************

 **************************************************************************

                    xk=(   0.00000,   0.00000,   0.50000  )

     Band symmetry, C_2v (mm2)  point group:

     e(  1 -  1) =    -24.86867  eV     1   --> A_1  D_1  S_1  
     e(  2 -  3) =    -24.44645  eV     2   --> B_1  D_3  S_3  
     e(  2 -  3) =    -24.44645  eV     2   --> B_2  D_4  S_4  
     e(  4 -  4) =    -23.96755  eV     1   --> A_1  D_1  S_1  
     e(  5 -  5) =    -23.36062  eV     1   --> A_1  D_1  S_1  
     e(  6 -  6) =    -22.05227  eV     1   --> A_2  D_2  S_2  
     e(  7 -  7) =     -7.01035  eV     1   --> A_1  D_1  S_1  
     e(  8 -  9) =     -6.75181  eV     2   --> B_1  D_3  S_3  
     e(  8 -  9) =     -6.75181  eV     2   --> B_2  D_4  S_4  
     e( 10 - 10) =      5.83609  eV     1   --> A_1  D_1  S_1  
     e( 11 - 11) =      9.21759  eV     1   --> A_1  D_1  S_1  
     e( 12 - 12) =     10.54769  eV     1   --> A_1  D_1  S_1  
     e( 13 - 14) =     10.94762  eV     2   --> B_1  D_3  S_3  
     e( 13 - 14) =     10.94762  eV     2   --> B_2  D_4  S_4  
     e( 15 - 15) =     11.05668  eV     1   --> A_1  D_1  S_1  
     e( 16 - 17) =     11.07365  eV     2   --> B_1  D_3  S_3  
     e( 16 - 17) =     11.07365  eV     2   --> B_2  D_4  S_4  
     e( 18 - 18) =     11.08312  eV     1   --> A_2  D_2  S_2  
     e( 19 - 19) =     11.93850  eV     1   --> A_1  D_1  S_1  
     e( 20 - 21) =     12.71511  eV     2   --> B_1  D_3  S_3  
     e( 20 - 21) =     12.71511  eV     2   --> B_2  D_4  S_4  
     e( 22 - 22) =     14.04045  eV     1   --> A_2  D_2  S_2  

 **************************************************************************

 **************************************************************************

                    xk=(   0.00000,   0.00000,   0.45000  )

     Band symmetry, C_2v (mm2)  point group:

     e(  1 -  1) =    -26.75618  eV     1   --> A_1  D_1  S_1  
     e(  2 -  3) =    -26.20861  eV     2   --> B_1  D_3  S_3  
     e(  2 -  3) =    -26.20861  eV     2   --> B_2  D_4  S_4  
     e(  4 -  4) =    -24.89125  eV     1   --> A_1  D_1  S_1  
     e(  5 -  5) =    -23.36913  eV     1   --> A_1  D_1  S_1  
     e(  6 -  6) =    -22.30870  eV     1   --> A_2  D_2  S_2  
     e(  7 -  7) =     -6.95344  eV     1   --> A_1  D_1  S_1  
     e(  8 -  9) =     -6.73199  eV     2   --> B_1  D_3  S_3  
     e(  8 -  9) =     -6.73199  eV     2   --> B_2  D_4  S_4  
     e( 10 - 10) =      5.71440  eV     1   --> A_1  D_1  S_1  
     e( 11 - 11) =      9.28741  eV     1   --> A_1  D_1  S_1  
     e( 12 - 12) =     10.57322  eV     1   --> A_1  D_1  S_1  
     e( 13 - 14) =     10.90369  eV     2   --> B_1  D_3  S_3  
     e( 13 - 14) =     10.90369  eV     2   --> B_2  D_4  S_4  
     e( 15 - 16) =     10.99971  eV     2   --> B_1  D_3  S_3  
     e( 15 - 16) =     10.99971  eV     2   --> B_2  D_4  S_4  
     e( 17 - 17) =     11.05051  eV     1   --> A_2  D_2  S_2  
     e( 18 - 18) =     11.06736  eV     1   --> A_1  D_1  S_1  
     e( 19 - 19) =     12.04798  eV     1   --> A_1  D_1  S_1  
     e( 20 - 21) =     12.48875  eV     2   --> B_1  D_3  S_3  
     e( 20 - 21) =     12.48875  eV     2   --> B_2  D_4  S_4  
     e( 22 - 22) =     13.92724  eV     1   --> A_2  D_2  S_2  

 **************************************************************************

 **************************************************************************

                    xk=(   0.00000,   0.00000,   0.40000  )

     Band symmetry, C_2v (mm2)  point group:

     e(  1 -  1) =    -26.71076  eV     1   --> A_1  D_1  S_1  
     e(  2 -  3) =    -26.26764  eV     2   --> B_1  D_3  S_3  
     e(  2 -  3) =    -26.26764  eV     2   --> B_2  D_4  S_4  
     e(  4 -  4) =    -24.86362  eV     1   --> A_1  D_1  S_1  
     e(  5 -  5) =    -23.37741  eV     1   --> A_1  D_1  S_1  
     e(  6 -  6) =    -22.33276  eV     1   --> A_2  D_2  S_2  
     e(  7 -  7) =     -6.89671  eV     1   --> A_1  D_1  S_1  
     e(  8 -  9) =     -6.71255  eV     2   --> B_1  D_3  S_3  
     e(  8 -  9) =     -6.71255  eV     2   --> B_2  D_4  S_4  
     e( 10 - 10) =      5.58262  eV     1   --> A_1  D_1  S_1  
     e( 11 - 11) =      9.37203  eV     1   --> A_1  D_1  S_1  
     e( 12 - 12) =     10.62847  eV     1   --> A_1  D_1  S_1  
     e( 13 - 14) =     10.90812  eV     2   --> B_1  D_3  S_3  
     e( 13 - 14) =     10.90812  eV     2   --> B_2  D_4  S_4  
     e( 15 - 16) =     10.98315  eV     2   --> B_1  D_3  S_3  
     e( 15 - 16) =     10.98315  eV     2   --> B_2  D_4  S_4  
     e( 17 - 17) =     11.06201  eV     1   --> A_2  D_2  S_2  
     e( 18 - 18) =     11.09391  eV     1   --> A_1  D_1  S_1  
     e( 19 - 19) =     12.22350  eV     1   --> A_1  D_1  S_1  
     e( 20 - 21) =     12.28105  eV     2   --> B_1  D_3  S_3  
     e( 20 - 21) =     12.28105  eV     2   --> B_2  D_4  S_4  
     e( 22 - 22) =     13.81817  eV     1   --> A_2  D_2  S_2  

 **************************************************************************

 **************************************************************************

                    xk=(   0.00000,   0.00000,   0.35000  )

     Band symmetry, C_2v (mm2)  point group:

     e(  1 -  1) =    -29.19877  eV     1   --> A_1  D_1  S_1  
     e(  2 -  3) =    -26.62282  eV     2   --> B_1  D_3  S_3  
     e(  2 -  3) =    -26.62282  eV     2   --> B_2  D_4  S_4  
     e(  4 -  4) =    -24.83322  eV     1   --> A_1  D_1  S_1  
     e(  5 -  5) =    -23.38527  eV     1   --> A_1  D_1  S_1  
     e(  6 -  6) =    -22.34286  eV     1   --> A_2  D_2  S_2  
     e(  7 -  7) =     -6.84168  eV     1   --> A_1  D_1  S_1  
     e(  8 -  9) =     -6.69399  eV     2   --> B_1  D_3  S_3  
     e(  8 -  9) =     -6.69399  eV     2   --> B_2  D_4  S_4  
     e( 10 - 10) =      5.44692  eV     1   --> A_1  D_1  S_1  
     e( 11 - 11) =      9.46974  eV     1   --> A_1  D_1  S_1  
     e( 12 - 12) =     10.58746  eV     1   --> A_1  D_1  S_1  
     e( 13 - 14) =     10.89520  eV     2   --> B_1  D_3  S_3  
     e( 13 - 14) =     10.89520  eV     2   --> B_2  D_4  S_4  
     e( 15 - 16) =     10.96683  eV     2   --> B_1  D_3  S_3  
     e( 15 - 16) =     10.96683  eV     2   --> B_2  D_4  S_4  
     e( 17 - 17) =     11.07813  eV     1   --> A_2  D_2  S_2  
     e( 18 - 18) =     11.12291  eV     1   --> A_1  D_1  S_1  
     e( 19 - 20) =     12.09019  eV     2   --> B_1  D_3  S_3  
     e( 19 - 20) =     12.09019  eV     2   --> B_2  D_4  S_4  
     e( 21 - 21) =     12.37906  eV     1   --> A_1  D_1  S_1  
     e( 22 - 22) =     13.71554  eV     1   --> A_2  D_2  S_2  

 **************************************************************************

 **************************************************************************

                    xk=(   0.00000,   0.00000,   0.30000  )

     Band symmetry, C_2v (mm2)  point group:

     e(  1 -  1) =    -27.78424  eV     1   --> A_1  D_1  S_1  
     e(  2 -  2) =    -27.02634  eV     1   --> A_1  D_1  S_1  
     e(  3 -  4) =    -26.58339  eV     2   --> B_1  D_3  S_3  
     e(  3 -  4) =    -26.58339  eV     2   --> B_2  D_4  S_4  
     e(  5 -  5) =    -24.87254  eV     1   --> A_2  D_2  S_2  
     e(  6 -  6) =    -23.39261  eV     1   --> A_1  D_1  S_1  
     e(  7 -  7) =     -6.78982  eV     1   --> A_1  D_1  S_1  
     e(  8 -  9) =     -6.67681  eV     2   --> B_1  D_3  S_3  
     e(  8 -  9) =     -6.67681  eV     2   --> B_2  D_4  S_4  
     e( 10 - 10) =      5.31393  eV     1   --> A_1  D_1  S_1  
     e( 11 - 11) =      9.58184  eV     1   --> A_1  D_1  S_1  
     e( 12 - 12) =     10.74856  eV     1   --> A_1  D_1  S_1  
     e( 13 - 14) =     10.84220  eV     2   --> B_1  D_3  S_3  
     e( 13 - 14) =     10.84220  eV     2   --> B_2  D_4  S_4  
     e( 15 - 16) =     10.88648  eV     2   --> B_1  D_3  S_3  
     e( 15 - 16) =     10.88648  eV     2   --> B_2  D_4  S_4  
     e( 17 - 17) =     11.09677  eV     1   --> A_2  D_2  S_2  
     e( 18 - 18) =     11.15985  eV     1   --> A_1  D_1  S_1  
     e( 19 - 20) =     11.90127  eV     2   --> B_1  D_3  S_3  
     e( 19 - 20) =     11.90127  eV     2   --> B_2  D_4  S_4  
     e( 21 - 21) =     12.59072  eV     1   --> A_1  D_1  S_1  
     e( 22 - 22) =     13.61714  eV     1   --> A_2  D_2  S_2  

 **************************************************************************

 **************************************************************************

                    xk=(   0.00000,   0.00000,   0.25000  )

     Band symmetry, C_2v (mm2)  point group:

     e(  1 -  1) =    -27.77004  eV     1   --> A_1  D_1  S_1  
     e(  2 -  2) =    -26.95820  eV     1   --> A_1  D_1  S_1  
     e(  3 -  4) =    -26.60002  eV     2   --> B_1  D_3  S_3  
     e(  3 -  4) =    -26.60002  eV     2   --> B_2  D_4  S_4  
     e(  5 -  5) =    -24.85690  eV     1   --> A_2  D_2  S_2  
     e(  6 -  6) =    -23.39905  eV     1   --> A_1  D_1  S_1  
     e(  7 -  7) =     -6.74273  eV     1   --> A_1  D_1  S_1  
     e(  8 -  9) =     -6.66139  eV     2   --> B_1  D_3  S_3  
     e(  8 -  9) =     -6.66139  eV     2   --> B_2  D_4  S_4  
     e( 10 - 10) =      5.19008  eV     1   --> A_1  D_1  S_1  
     e( 11 - 11) =      9.69963  eV     1   --> A_1  D_1  S_1  
     e( 12 - 12) =     10.77577  eV     1   --> A_1  D_1  S_1  
     e( 13 - 14) =     10.83998  eV     2   --> B_1  D_3  S_3  
     e( 13 - 14) =     10.83998  eV     2   --> B_2  D_4  S_4  
     e( 15 - 16) =     10.91042  eV     2   --> B_1  D_3  S_3  
     e( 15 - 16) =     10.91042  eV     2   --> B_2  D_4  S_4  
     e( 17 - 17) =     11.11932  eV     1   --> A_2  D_2  S_2  
     e( 18 - 18) =     11.20370  eV     1   --> A_1  D_1  S_1  
     e( 19 - 20) =     11.74560  eV     2   --> B_1  D_3  S_3  
     e( 19 - 20) =     11.74560  eV     2   --> B_2  D_4  S_4  
     e( 21 - 21) =     12.79067  eV     1   --> A_1  D_1  S_1  
     e( 22 - 22) =     13.53413  eV     1   --> A_2  D_2  S_2  

 **************************************************************************

 **************************************************************************

                    xk=(   0.00000,   0.00000,   0.20000  )

     Band symmetry, C_2v (mm2)  point group:

     e(  1 -  1) =    -27.73727  eV     1   --> A_1  D_1  S_1  
     e(  2 -  2) =    -26.87544  eV     1   --> A_1  D_1  S_1  
     e(  3 -  4) =    -26.60039  eV     2   --> B_1  D_3  S_3  
     e(  3 -  4) =    -26.60039  eV     2   --> B_2  D_4  S_4  
     e(  5 -  5) =    -24.82697  eV     1   --> A_2  D_2  S_2  
     e(  6 -  6) =    -23.40454  eV     1   --> A_1  D_1  S_1  
     e(  7 -  7) =     -6.70182  eV     1   --> A_1  D_1  S_1  
     e(  8 -  9) =     -6.64818  eV     2   --> B_1  D_3  S_3  
     e(  8 -  9) =     -6.64818  eV     2   --> B_2  D_4  S_4  
     e( 10 - 10) =      5.08094  eV     1   --> A_1  D_1  S_1  
     e( 11 - 11) =      9.81929  eV     1   --> A_1  D_1  S_1  
     e( 12 - 12) =     10.80321  eV     1   --> A_1  D_1  S_1  
     e( 13 - 14) =     10.83999  eV     2   --> B_1  D_3  S_3  
     e( 13 - 14) =     10.83999  eV     2   --> B_2  D_4  S_4  
     e( 15 - 16) =     10.94555  eV     2   --> B_1  D_3  S_3  
     e( 15 - 16) =     10.94555  eV     2   --> B_2  D_4  S_4  
     e( 17 - 17) =     11.14399  eV     1   --> A_2  D_2  S_2  
     e( 18 - 18) =     11.24864  eV     1   --> A_1  D_1  S_1  
     e( 19 - 20) =     11.60829  eV     2   --> B_1  D_3  S_3  
     e( 19 - 20) =     11.60829  eV     2   --> B_2  D_4  S_4  
     e( 21 - 21) =     12.97517  eV     1   --> A_1  D_1  S_1  
     e( 22 - 22) =     13.46379  eV     1   --> A_2  D_2  S_2  

 **************************************************************************

 **************************************************************************

                    xk=(   0.00000,   0.00000,   0.15000  )

     Band symmetry, C_2v (mm2)  point group:

     e(  1 -  1) =    -29.44298  eV     1   --> A_1  D_1  S_1  
     e(  2 -  3) =    -25.96447  eV     2   --> B_1  D_3  S_3  
     e(  2 -  3) =    -25.96447  eV     2   --> B_2  D_4  S_4  
     e(  4 -  4) =    -25.83039  eV     1   --> A_2  D_2  S_2  
     e(  5 -  5) =    -25.10310  eV     1   --> A_1  D_1  S_1  
     e(  6 -  6) =    -23.40891  eV     1   --> A_1  D_1  S_1  
     e(  7 -  7) =     -6.66841  eV     1   --> A_1  D_1  S_1  
     e(  8 -  9) =     -6.63755  eV     2   --> B_1  D_3  S_3  
     e(  8 -  9) =     -6.63755  eV     2   --> B_2  D_4  S_4  
     e( 10 - 10) =      4.99102  eV     1   --> A_1  D_1  S_1  
     e( 11 - 11) =      9.90489  eV     1   --> A_1  D_1  S_1  
     e( 12 - 13) =     10.82100  eV     2   --> B_1  D_3  S_3  
     e( 12 - 13) =     10.82100  eV     2   --> B_2  D_4  S_4  
     e( 14 - 14) =     10.85544  eV     1   --> A_1  D_1  S_1  
     e( 15 - 16) =     11.01187  eV     2   --> B_1  D_3  S_3  
     e( 15 - 16) =     11.01187  eV     2   --> B_2  D_4  S_4  
     e( 17 - 17) =     11.14589  eV     1   --> A_2  D_2  S_2  
     e( 18 - 18) =     11.24908  eV     1   --> A_1  D_1  S_1  
     e( 19 - 20) =     11.48722  eV     2   --> B_1  D_3  S_3  
     e( 19 - 20) =     11.48722  eV     2   --> B_2  D_4  S_4  
     e( 21 - 21) =     13.12581  eV     1   --> A_1  D_1  S_1  
     e( 22 - 22) =     13.40712  eV     1   --> A_2  D_2  S_2  

 **************************************************************************

 **************************************************************************

                    xk=(   0.00000,   0.00000,   0.10000  )

     Band symmetry, C_2v (mm2)  point group:

     e(  1 -  1) =    -30.33181  eV     1   --> A_1  D_1  S_1  
     e(  2 -  2) =    -27.57724  eV     1   --> A_2  D_2  S_2  
     e(  3 -  4) =    -27.56320  eV     2   --> B_1  D_3  S_3  
     e(  3 -  4) =    -27.56320  eV     2   --> B_2  D_4  S_4  
     e(  5 -  5) =    -25.25738  eV     1   --> A_1  D_1  S_1  
     e(  6 -  6) =    -23.41215  eV     1   --> A_1  D_1  S_1  
     e(  7 -  7) =     -6.64370  eV     1   --> A_1  D_1  S_1  
     e(  8 -  9) =     -6.62976  eV     2   --> B_1  D_3  S_3  
     e(  8 -  9) =     -6.62976  eV     2   --> B_2  D_4  S_4  
     e( 10 - 10) =      4.92410  eV     1   --> A_1  D_1  S_1  
     e( 11 - 11) =      9.95801  eV     1   --> A_1  D_1  S_1  
     e( 12 - 13) =     10.79131  eV     2   --> B_1  D_3  S_3  
     e( 12 - 13) =     10.79131  eV     2   --> B_2  D_4  S_4  
     e( 14 - 14) =     10.80884  eV     1   --> A_1  D_1  S_1  
     e( 15 - 15) =     11.03889  eV     1   --> A_2  D_2  S_2  
     e( 16 - 17) =     11.04251  eV     2   --> B_1  D_3  S_3  
     e( 16 - 17) =     11.04251  eV     2   --> B_2  D_4  S_4  
     e( 18 - 18) =     11.26979  eV     1   --> A_1  D_1  S_1  
     e( 19 - 20) =     11.38678  eV     2   --> B_1  D_3  S_3  
     e( 19 - 20) =     11.38678  eV     2   --> B_2  D_4  S_4  
     e( 21 - 21) =     13.24258  eV     1   --> A_1  D_1  S_1  
     e( 22 - 22) =     13.36516  eV     1   --> A_2  D_2  S_2  

 **************************************************************************

 **************************************************************************

                    xk=(   0.00000,   0.00000,   0.05000  )

     Band symmetry, C_2v (mm2)  point group:

     e(  1 -  1) =    -30.54837  eV     1   --> A_1  D_1  S_1  
     e(  2 -  3) =    -29.40525  eV     2   --> B_1  D_3  S_3  
     e(  2 -  3) =    -29.40525  eV     2   --> B_2  D_4  S_4  
     e(  4 -  4) =    -27.63611  eV     1   --> A_2  D_2  S_2  
     e(  5 -  5) =    -27.18756  eV     1   --> A_1  D_1  S_1  
     e(  6 -  6) =    -23.41423  eV     1   --> A_1  D_1  S_1  
     e(  7 -  7) =     -6.62853  eV     1   --> A_1  D_1  S_1  
     e(  8 -  9) =     -6.62499  eV     2   --> B_1  D_3  S_3  
     e(  8 -  9) =     -6.62499  eV     2   --> B_2  D_4  S_4  
     e( 10 - 10) =      4.88292  eV     1   --> A_1  D_1  S_1  
     e( 11 - 11) =      9.98235  eV     1   --> A_1  D_1  S_1  
     e( 12 - 13) =     10.76454  eV     2   --> B_1  D_3  S_3  
     e( 12 - 13) =     10.76454  eV     2   --> B_2  D_4  S_4  
     e( 14 - 14) =     10.80403  eV     1   --> A_1  D_1  S_1  
     e( 15 - 16) =     10.97876  eV     2   --> B_1  D_3  S_3  
     e( 15 - 16) =     10.97876  eV     2   --> B_2  D_4  S_4  
     e( 17 - 17) =     11.03424  eV     1   --> A_2  D_2  S_2  
     e( 18 - 18) =     11.29277  eV     1   --> A_1  D_1  S_1  
     e( 19 - 20) =     11.31909  eV     2   --> B_1  D_3  S_3  
     e( 19 - 20) =     11.31909  eV     2   --> B_2  D_4  S_4  
     e( 21 - 21) =     13.31117  eV     1   --> A_1  D_1  S_1  
     e( 22 - 22) =     13.34067  eV     1   --> A_2  D_2  S_2  

 **************************************************************************

 **************************************************************************

                    xk=(   0.00000,   0.00000,   0.00000  )

     point group T_d (-43m) 
     there are  5 classes
     the character table:

       E     8C3   3C2   6S4   6s_d 
A_1    1.00  1.00  1.00  1.00  1.00
A_2    1.00  1.00  1.00 -1.00 -1.00
E      2.00 -1.00  2.00  0.00  0.00
T_1    3.00  0.00 -1.00  1.00 -1.00
T_2    3.00  0.00 -1.00 -1.00  1.00

     the symmetry operations in each class and the name of the first element:

     E        1
                                                                 
     8C3      5    7    8    6   12    9   10   11
                                                                 
     3C2      2    3    4
                                                                 
     6S4     15   16   20   19   23   24
                                                                 
     6s_d    13   14   17   18   21   22
                                                                 

     Band symmetry, T_d (-43m)  point group:

     e(  1 -  3) =    -35.59030  eV     3   --> T_2  G_15 P_4  
     e(  4 -  5) =    -30.55473  eV     2   --> E    G_12 P_3  
     e(  6 -  6) =    -23.41505  eV     1   --> A_1  G_1  P_1  
     e(  7 -  9) =     -6.62350  eV     3   --> T_2  G_15 P_4  
     e( 10 - 10) =      4.86628  eV     1   --> A_1  G_1  P_1  
     e( 11 - 11) =      9.74053  eV     1   --> A_1  G_1  P_1  
     e( 12 - 14) =     10.60409  eV     3   --> T_2  G_15 P_4  
     e( 15 - 17) =     10.84787  eV     3   --> T_1  G_25 P_5  
     e( 18 - 20) =     11.29005  eV     3   --> T_2  G_15 P_4  
     e( 21 - 22) =     13.32900  eV     2   --> E    G_12 P_3  

 **************************************************************************

 **************************************************************************

                    xk=(   0.02500,   0.02500,   0.02500  )

     point group C_3v (3m)  
     there are  3 classes
     the character table:

       E     2C3   3s_v 
A_1    1.00  1.00  1.00
A_2    1.00  1.00 -1.00
E      2.00 -1.00  0.00

     the symmetry operations in each class and the name of the first element:

     E        1
                                                                 
     2C3      2    3
                                                                 
     3s_v     4    5    6
                                                                 

     Band symmetry, C_3v (3m)   point group:

     e(  1 -  2) =    -30.96085  eV     2   --> E    L_3       
     e(  3 -  3) =    -30.51097  eV     1   --> A_1  L_1       
     e(  4 -  5) =    -26.58799  eV     2   --> E    L_3       
     e(  6 -  6) =    -23.41441  eV     1   --> A_1  L_1       
     e(  7 -  7) =     -6.62848  eV     1   --> A_1  L_1       
     e(  8 -  9) =     -6.62400  eV     2   --> E    L_3       
     e( 10 - 10) =      4.87878  eV     1   --> A_1  L_1       
     e( 11 - 11) =      9.91366  eV     1   --> A_1  L_1       
     e( 12 - 12) =     10.76699  eV     1   --> A_1  L_1       
     e( 13 - 14) =     10.79016  eV     2   --> E    L_3       
     e( 15 - 16) =     11.00238  eV     2   --> E    L_3       
     e( 17 - 17) =     11.00316  eV     1   --> A_2  L_2       
     e( 18 - 18) =     11.29382  eV     1   --> A_1  L_1       
     e( 19 - 20) =     11.30887  eV     2   --> E    L_3       
     e( 21 - 22) =     13.32957  eV     2   --> E    L_3       

 **************************************************************************

 **************************************************************************

                    xk=(   0.05000,   0.05000,   0.05000  )

     Band symmetry, C_3v (3m)   point group:

     e(  1 -  2) =    -29.24500  eV     2   --> E    L_3       
     e(  3 -  3) =    -26.92083  eV     1   --> A_1  L_1       
     e(  4 -  5) =    -25.61471  eV     2   --> E    L_3       
     e(  6 -  6) =    -23.41286  eV     1   --> A_1  L_1       
     e(  7 -  7) =     -6.64351  eV     1   --> A_1  L_1       
     e(  8 -  9) =     -6.62571  eV     2   --> E    L_3       
     e( 10 - 10) =      4.91035  eV     1   --> A_1  L_1       
     e( 11 - 11) =      9.97382  eV     1   --> A_1  L_1       
     e( 12 - 12) =     10.82483  eV     1   --> A_1  L_1       
     e( 13 - 14) =     10.84140  eV     2   --> E    L_3       
     e( 15 - 15) =     11.02469  eV     1   --> A_2  L_2       
     e( 16 - 17) =     11.04255  eV     2   --> E    L_3       
     e( 18 - 18) =     11.30361  eV     1   --> A_1  L_1       
     e( 19 - 20) =     11.36586  eV     2   --> E    L_3       
     e( 21 - 22) =     13.31536  eV     2   --> E    L_3       

 **************************************************************************

 **************************************************************************

                    xk=(   0.07500,   0.07500,   0.07500  )

     Band symmetry, C_3v (3m)   point group:

     e(  1 -  2) =    -28.04936  eV     2   --> E    L_3       
     e(  3 -  3) =    -26.97896  eV     1   --> A_1  L_1       
     e(  4 -  5) =    -24.54622  eV     2   --> E    L_3       
     e(  6 -  6) =    -23.41041  eV     1   --> A_1  L_1       
     e(  7 -  7) =     -6.66810  eV     1   --> A_1  L_1       
     e(  8 -  9) =     -6.62855  eV     2   --> E    L_3       
     e( 10 - 10) =      4.96030  eV     1   --> A_1  L_1       
     e( 11 - 11) =      9.93194  eV     1   --> A_1  L_1       
     e( 12 - 12) =     10.81279  eV     1   --> A_1  L_1       
     e( 13 - 14) =     10.88725  eV     2   --> E    L_3       
     e( 15 - 16) =     11.04319  eV     2   --> E    L_3       
     e( 17 - 17) =     11.05183  eV     1   --> A_2  L_2       
     e( 18 - 18) =     11.29079  eV     1   --> A_1  L_1       
     e( 19 - 20) =     11.43519  eV     2   --> E    L_3       
     e( 21 - 22) =     13.29229  eV     2   --> E    L_3       

 **************************************************************************

 **************************************************************************

                    xk=(   0.10000,   0.10000,   0.10000  )

     Band symmetry, C_3v (3m)   point group:

     e(  1 -  2) =    -26.74867  eV     2   --> E    L_3       
     e(  3 -  3) =    -26.69306  eV     1   --> A_1  L_1       
     e(  4 -  5) =    -23.73758  eV     2   --> E    L_3       
     e(  6 -  6) =    -23.40708  eV     1   --> A_1  L_1       
     e(  7 -  7) =     -6.70143  eV     1   --> A_1  L_1       
     e(  8 -  9) =     -6.63243  eV     2   --> E    L_3       
     e( 10 - 10) =      5.02732  eV     1   --> A_1  L_1       
     e( 11 - 11) =      9.87992  eV     1   --> A_1  L_1       
     e( 12 - 12) =     10.80584  eV     1   --> A_1  L_1       
     e( 13 - 14) =     10.92288  eV     2   --> E    L_3       
     e( 15 - 16) =     11.02298  eV     2   --> E    L_3       
     e( 17 - 17) =     11.14024  eV     1   --> A_2  L_2       
     e( 18 - 18) =     11.28900  eV     1   --> A_1  L_1       
     e( 19 - 20) =     11.51147  eV     2   --> E    L_3       
     e( 21 - 22) =     13.26731  eV     2   --> E    L_3       

 **************************************************************************

 **************************************************************************

                    xk=(   0.12500,   0.12500,   0.12500  )

     Band symmetry, C_3v (3m)   point group:

     e(  1 -  1) =    -28.18324  eV     1   --> A_1  L_1       
     e(  2 -  3) =    -26.84577  eV     2   --> E    L_3       
     e(  4 -  5) =    -25.32967  eV     2   --> E    L_3       
     e(  6 -  6) =    -23.40300  eV     1   --> A_1  L_1       
     e(  7 -  7) =     -6.74249  eV     1   --> A_1  L_1       
     e(  8 -  9) =     -6.63729  eV     2   --> E    L_3       
     e( 10 - 10) =      5.10831  eV     1   --> A_1  L_1       
     e( 11 - 11) =      9.80254  eV     1   --> A_1  L_1       
     e( 12 - 12) =     10.79238  eV     1   --> A_1  L_1       
     e( 13 - 14) =     10.82702  eV     2   --> E    L_3       
     e( 15 - 16) =     10.97806  eV     2   --> E    L_3       
     e( 17 - 17) =     11.13445  eV     1   --> A_2  L_2       
     e( 18 - 18) =     11.26357  eV     1   --> A_1  L_1       
     e( 19 - 20) =     11.56893  eV     2   --> E    L_3       
     e( 21 - 22) =     13.24060  eV     2   --> E    L_3       

 **************************************************************************

 **************************************************************************

                    xk=(   0.15000,   0.15000,   0.15000  )

     Band symmetry, C_3v (3m)   point group:

     e(  1 -  1) =    -28.22071  eV     1   --> A_1  L_1       
     e(  2 -  3) =    -26.86747  eV     2   --> E    L_3       
     e(  4 -  5) =    -25.31876  eV     2   --> E    L_3       
     e(  6 -  6) =    -23.39816  eV     1   --> A_1  L_1       
     e(  7 -  7) =     -6.79000  eV     1   --> A_1  L_1       
     e(  8 -  9) =     -6.64295  eV     2   --> E    L_3       
     e( 10 - 10) =      5.19990  eV     1   --> A_1  L_1       
     e( 11 - 11) =      9.73714  eV     1   --> A_1  L_1       
     e( 12 - 12) =     10.78090  eV     1   --> A_1  L_1       
     e( 13 - 14) =     10.81926  eV     2   --> E    L_3       
     e( 15 - 16) =     10.95530  eV     2   --> E    L_3       
     e( 17 - 17) =     11.13141  eV     1   --> A_2  L_2       
     e( 18 - 18) =     11.23860  eV     1   --> A_1  L_1       
     e( 19 - 20) =     11.63653  eV     2   --> E    L_3       
     e( 21 - 22) =     13.22594  eV     2   --> E    L_3       

 **************************************************************************

 **************************************************************************

                    xk=(   0.17500,   0.17500,   0.17500  )

     Band symmetry, C_3v (3m)   point group:

     e(  1 -  1) =    -28.26599  eV     1   --> A_1  L_1       
     e(  2 -  3) =    -27.66007  eV     2   --> E    L_3       
     e(  4 -  5) =    -26.88448  eV     2   --> E    L_3       
     e(  6 -  6) =    -23.39275  eV     1   --> A_1  L_1       
     e(  7 -  7) =     -6.84260  eV     1   --> A_1  L_1       
     e(  8 -  9) =     -6.64930  eV     2   --> E    L_3       
     e( 10 - 10) =      5.29771  eV     1   --> A_1  L_1       
     e( 11 - 11) =      9.68249  eV     1   --> A_1  L_1       
     e( 12 - 12) =     10.76330  eV     1   --> A_1  L_1       
     e( 13 - 14) =     10.78354  eV     2   --> E    L_3       
     e( 15 - 16) =     10.88859  eV     2   --> E    L_3       
     e( 17 - 17) =     11.08950  eV     1   --> A_2  L_2       
     e( 18 - 18) =     11.20043  eV     1   --> A_1  L_1       
     e( 19 - 20) =     11.68363  eV     2   --> E    L_3       
     e( 21 - 22) =     13.22584  eV     2   --> E    L_3       

 **************************************************************************

 **************************************************************************

                    xk=(   0.20000,   0.20000,   0.20000  )

     Band symmetry, C_3v (3m)   point group:

     e(  1 -  1) =    -30.43139  eV     1   --> A_1  L_1       
     e(  2 -  3) =    -27.68227  eV     2   --> E    L_3       
     e(  4 -  5) =    -26.93124  eV     2   --> E    L_3       
     e(  6 -  6) =    -23.38685  eV     1   --> A_1  L_1       
     e(  7 -  7) =     -6.89886  eV     1   --> A_1  L_1       
     e(  8 -  9) =     -6.65615  eV     2   --> E    L_3       
     e( 10 - 10) =      5.39664  eV     1   --> A_1  L_1       
     e( 11 - 11) =      9.63644  eV     1   --> A_1  L_1       
     e( 12 - 12) =     10.71414  eV     1   --> A_1  L_1       
     e( 13 - 14) =     10.77916  eV     2   --> E    L_3       
     e( 15 - 16) =     10.87357  eV     2   --> E    L_3       
     e( 17 - 17) =     11.08652  eV     1   --> A_2  L_2       
     e( 18 - 18) =     11.13622  eV     1   --> A_1  L_1       
     e( 19 - 20) =     11.71775  eV     2   --> E    L_3       
     e( 21 - 22) =     13.25728  eV     2   --> E    L_3       

 **************************************************************************

 **************************************************************************

                    xk=(   0.22500,   0.22500,   0.22500  )

     Band symmetry, C_3v (3m)   point group:

     e(  1 -  1) =    -29.69786  eV     1   --> A_1  L_1       
     e(  2 -  3) =    -27.67192  eV     2   --> E    L_3       
     e(  4 -  5) =    -26.90814  eV     2   --> E    L_3       
     e(  6 -  6) =    -23.38062  eV     1   --> A_1  L_1       
     e(  7 -  7) =     -6.95720  eV     1   --> A_1  L_1       
     e(  8 -  9) =     -6.66333  eV     2   --> E    L_3       
     e( 10 - 10) =      5.49339  eV     1   --> A_1  L_1       
     e( 11 - 11) =      9.63624  eV     1   --> A_1  L_1       
     e( 12 - 12) =     10.71427  eV     1   --> A_1  L_1       
     e( 13 - 14) =     10.78337  eV     2   --> E    L_3       
     e( 15 - 16) =     10.86958  eV     2   --> E    L_3       
     e( 17 - 17) =     11.08435  eV     1   --> A_2  L_2       
     e( 18 - 18) =     11.14387  eV     1   --> A_1  L_1       
     e( 19 - 20) =     11.72985  eV     2   --> E    L_3       
     e( 21 - 22) =     13.32243  eV     2   --> E    L_3       

 **************************************************************************

 **************************************************************************

                    xk=(   0.25000,   0.25000,   0.25000  )

     Band symmetry, C_3v (3m)   point group:

     e(  1 -  1) =    -29.71621  eV     1   --> A_1  L_1       
     e(  2 -  3) =    -27.65218  eV     2   --> E    L_3       
     e(  4 -  5) =    -26.87142  eV     2   --> E    L_3       
     e(  6 -  6) =    -23.37422  eV     1   --> A_1  L_1       
     e(  7 -  7) =     -7.01617  eV     1   --> A_1  L_1       
     e(  8 -  9) =     -6.67068  eV     2   --> E    L_3       
     e( 10 - 10) =      5.58277  eV     1   --> A_1  L_1       
     e( 11 - 11) =      9.65898  eV     1   --> A_1  L_1       
     e( 12 - 12) =     10.70509  eV     1   --> A_1  L_1       
     e( 13 - 14) =     10.79130  eV     2   --> E    L_3       
     e( 15 - 16) =     10.87435  eV     2   --> E    L_3       
     e( 17 - 17) =     11.08296  eV     1   --> A_2  L_2       
     e( 18 - 18) =     11.12659  eV     1   --> A_1  L_1       
     e( 19 - 20) =     11.71815  eV     2   --> E    L_3       
     e( 21 - 22) =     13.42148  eV     2   --> E    L_3       

 **************************************************************************

 **************************************************************************

                    xk=(   0.27500,   0.27500,   0.27500  )

     Band symmetry, C_3v (3m)   point group:

     e(  1 -  2) =    -29.32369  eV     2   --> E    L_3       
     e(  3 -  3) =    -28.41644  eV     1   --> A_1  L_1       
     e(  4 -  5) =    -28.09531  eV     2   --> E    L_3       
     e(  6 -  6) =    -23.36785  eV     1   --> A_1  L_1       
     e(  7 -  7) =     -7.07431  eV     1   --> A_1  L_1       
     e(  8 -  9) =     -6.67803  eV     2   --> E    L_3       
     e( 10 - 10) =      5.66147  eV     1   --> A_1  L_1       
     e( 11 - 11) =      9.71228  eV     1   --> A_1  L_1       
     e( 12 - 12) =     10.66063  eV     1   --> A_1  L_1       
     e( 13 - 14) =     10.77157  eV     2   --> E    L_3       
     e( 15 - 16) =     10.83174  eV     2   --> E    L_3       
     e( 17 - 17) =     10.98399  eV     1   --> A_2  L_2       
     e( 18 - 18) =     11.14842  eV     1   --> A_1  L_1       
     e( 19 - 20) =     11.68395  eV     2   --> E    L_3       
     e( 21 - 22) =     13.54724  eV     2   --> E    L_3       

 **************************************************************************

 **************************************************************************

                    xk=(   0.30000,   0.30000,   0.30000  )

     Band symmetry, C_3v (3m)   point group:

     e(  1 -  2) =    -28.82906  eV     2   --> E    L_3       
     e(  3 -  3) =    -26.33067  eV     1   --> A_1  L_1       
     e(  4 -  5) =    -26.02403  eV     2   --> E    L_3       
     e(  6 -  6) =    -23.36149  eV     1   --> A_1  L_1       
     e(  7 -  7) =     -7.13023  eV     1   --> A_1  L_1       
     e(  8 -  9) =     -6.68515  eV     2   --> E    L_3       
     e( 10 - 10) =      5.72766  eV     1   --> A_1  L_1       
     e( 11 - 11) =      9.79150  eV     1   --> A_1  L_1       
     e( 12 - 12) =     10.65878  eV     1   --> A_1  L_1       
     e( 13 - 14) =     10.84346  eV     2   --> E    L_3       
     e( 15 - 16) =     10.91833  eV     2   --> E    L_3       
     e( 17 - 17) =     10.98493  eV     1   --> A_2  L_2       
     e( 18 - 18) =     11.16283  eV     1   --> A_1  L_1       
     e( 19 - 20) =     11.65874  eV     2   --> E    L_3       
     e( 21 - 22) =     13.70046  eV     2   --> E    L_3       

 **************************************************************************

 **************************************************************************

                    xk=(   0.32500,   0.32500,   0.32500  )

     Band symmetry, C_3v (3m)   point group:

     e(  1 -  2) =    -28.82445  eV     2   --> E    L_3       
     e(  3 -  3) =    -26.34060  eV     1   --> A_1  L_1       
     e(  4 -  5) =    -25.97028  eV     2   --> E    L_3       
     e(  6 -  6) =    -23.35551  eV     1   --> A_1  L_1       
     e(  7 -  7) =     -7.18273  eV     1   --> A_1  L_1       
     e(  8 -  9) =     -6.69190  eV     2   --> E    L_3       
     e( 10 - 10) =      5.78024  eV     1   --> A_1  L_1       
     e( 11 - 11) =      9.89124  eV     1   --> A_1  L_1       
     e( 12 - 12) =     10.65659  eV     1   --> A_1  L_1       
     e( 13 - 14) =     10.85581  eV     2   --> E    L_3       
     e( 15 - 16) =     10.93409  eV     2   --> E    L_3       
     e( 17 - 17) =     10.98294  eV     1   --> A_2  L_2       
     e( 18 - 18) =     11.16233  eV     1   --> A_1  L_1       
     e( 19 - 20) =     11.60103  eV     2   --> E    L_3       
     e( 21 - 22) =     13.86605  eV     2   --> E    L_3       

 **************************************************************************

 **************************************************************************

                    xk=(   0.35000,   0.35000,   0.35000  )

     Band symmetry, C_3v (3m)   point group:

     e(  1 -  2) =    -29.87723  eV     2   --> E    L_3       
     e(  3 -  3) =    -25.78903  eV     1   --> A_1  L_1       
     e(  4 -  5) =    -25.06346  eV     2   --> E    L_3       
     e(  6 -  6) =    -23.34991  eV     1   --> A_1  L_1       
     e(  7 -  7) =     -7.23062  eV     1   --> A_1  L_1       
     e(  8 -  9) =     -6.69812  eV     2   --> E    L_3       
     e( 10 - 10) =      5.81993  eV     1   --> A_1  L_1       
     e( 11 - 11) =     10.00330  eV     1   --> A_1  L_1       
     e( 12 - 12) =     10.58642  eV     1   --> A_1  L_1       
     e( 13 - 14) =     10.85341  eV     2   --> E    L_3       
     e( 15 - 15) =     10.98075  eV     1   --> A_2  L_2       
     e( 16 - 17) =     10.98680  eV     2   --> E    L_3       
     e( 18 - 18) =     11.16561  eV     1   --> A_1  L_1       
     e( 19 - 20) =     11.54433  eV     2   --> E    L_3       
     e( 21 - 22) =     14.03761  eV     2   --> E    L_3       

 **************************************************************************

 **************************************************************************

                    xk=(   0.37500,   0.37500,   0.37500  )

     Band symmetry, C_3v (3m)   point group:

     e(  1 -  2) =    -28.06826  eV     2   --> E    L_3       
     e(  3 -  4) =    -24.01480  eV     2   --> E    L_3       
     e(  5 -  5) =    -23.34531  eV     1   --> A_1  L_1       
     e(  6 -  6) =    -21.85806  eV     1   --> A_1  L_1       
     e(  7 -  7) =     -7.27285  eV     1   --> A_1  L_1       
     e(  8 -  9) =     -6.70362  eV     2   --> E    L_3       
     e( 10 - 10) =      5.84891  eV     1   --> A_1  L_1       
     e( 11 - 11) =     10.14206  eV     1   --> A_1  L_1       
     e( 12 - 12) =     10.69451  eV     1   --> A_1  L_1       
     e( 13 - 14) =     10.88139  eV     2   --> E    L_3       
     e( 15 - 15) =     11.00361  eV     1   --> A_2  L_2       
     e( 16 - 17) =     11.09970  eV     2   --> E    L_3       
     e( 18 - 18) =     11.24182  eV     1   --> A_1  L_1       
     e( 19 - 20) =     11.49381  eV     2   --> E    L_3       
     e( 21 - 22) =     14.20774  eV     2   --> E    L_3       

 **************************************************************************

 **************************************************************************

                    xk=(   0.40000,   0.40000,   0.40000  )

     Band symmetry, C_3v (3m)   point group:

     e(  1 -  2) =    -26.88916  eV     2   --> E    L_3       
     e(  3 -  3) =    -23.34113  eV     1   --> A_1  L_1       
     e(  4 -  5) =    -22.46746  eV     2   --> E    L_3       
     e(  6 -  6) =    -22.26689  eV     1   --> A_1  L_1       
     e(  7 -  7) =     -7.30863  eV     1   --> A_1  L_1       
     e(  8 -  9) =     -6.70832  eV     2   --> E    L_3       
     e( 10 - 10) =      5.86825  eV     1   --> A_1  L_1       
     e( 11 - 11) =     10.25711  eV     1   --> A_1  L_1       
     e( 12 - 12) =     10.73554  eV     1   --> A_1  L_1       
     e( 13 - 14) =     10.97392  eV     2   --> E    L_3       
     e( 15 - 15) =     11.03242  eV     1   --> A_2  L_2       
     e( 16 - 17) =     11.10452  eV     2   --> E    L_3       
     e( 18 - 18) =     11.29310  eV     1   --> A_1  L_1       
     e( 19 - 20) =     11.44112  eV     2   --> E    L_3       
     e( 21 - 22) =     14.35984  eV     2   --> E    L_3       

 **************************************************************************

 **************************************************************************

                    xk=(   0.42500,   0.42500,   0.42500  )

     Band symmetry, C_3v (3m)   point group:

     e(  1 -  2) =    -28.13069  eV     2   --> E    L_3       
     e(  3 -  3) =    -24.33034  eV     1   --> A_1  L_1       
     e(  4 -  5) =    -23.75308  eV     2   --> E    L_3       
     e(  6 -  6) =    -23.33710  eV     1   --> A_1  L_1       
     e(  7 -  7) =     -7.33726  eV     1   --> A_1  L_1       
     e(  8 -  9) =     -6.71213  eV     2   --> E    L_3       
     e( 10 - 10) =      5.87934  eV     1   --> A_1  L_1       
     e( 11 - 11) =     10.30148  eV     1   --> A_1  L_1       
     e( 12 - 12) =     10.66872  eV     1   --> A_1  L_1       
     e( 13 - 14) =     10.93443  eV     2   --> E    L_3       
     e( 15 - 15) =     11.03066  eV     1   --> A_2  L_2       
     e( 16 - 17) =     11.10383  eV     2   --> E    L_3       
     e( 18 - 18) =     11.24965  eV     1   --> A_1  L_1       
     e( 19 - 20) =     11.37616  eV     2   --> E    L_3       
     e( 21 - 22) =     14.48985  eV     2   --> E    L_3       

 **************************************************************************

 **************************************************************************

                    xk=(   0.45000,   0.45000,   0.45000  )

     Band symmetry, C_3v (3m)   point group:

     e(  1 -  2) =    -28.13462  eV     2   --> E    L_3       
     e(  3 -  3) =    -24.33186  eV     1   --> A_1  L_1       
     e(  4 -  5) =    -23.70069  eV     2   --> E    L_3       
     e(  6 -  6) =    -23.33458  eV     1   --> A_1  L_1       
     e(  7 -  7) =     -7.35807  eV     1   --> A_1  L_1       
     e(  8 -  9) =     -6.71490  eV     2   --> E    L_3       
     e( 10 - 10) =      5.88669  eV     1   --> A_1  L_1       
     e( 11 - 11) =     10.35096  eV     1   --> A_1  L_1       
     e( 12 - 12) =     10.69081  eV     1   --> A_1  L_1       
     e( 13 - 14) =     10.94774  eV     2   --> E    L_3       
     e( 15 - 15) =     11.02958  eV     1   --> A_2  L_2       
     e( 16 - 17) =     11.13596  eV     2   --> E    L_3       
     e( 18 - 18) =     11.28986  eV     1   --> A_1  L_1       
     e( 19 - 20) =     11.32610  eV     2   --> E    L_3       
     e( 21 - 22) =     14.59405  eV     2   --> E    L_3       

 **************************************************************************

 **************************************************************************

                    xk=(   0.47500,   0.47500,   0.47500  )

     Band symmetry, C_3v (3m)   point group:

     e(  1 -  2) =    -28.35132  eV     2   --> E    L_3       
     e(  3 -  3) =    -27.96060  eV     1   --> A_1  L_1       
     e(  4 -  5) =    -26.28848  eV     2   --> E    L_3       
     e(  6 -  6) =    -23.33345  eV     1   --> A_1  L_1       
     e(  7 -  7) =     -7.37080  eV     1   --> A_1  L_1       
     e(  8 -  9) =     -6.71659  eV     2   --> E    L_3       
     e( 10 - 10) =      5.89029  eV     1   --> A_1  L_1       
     e( 11 - 11) =     10.37443  eV     1   --> A_1  L_1       
     e( 12 - 12) =     10.66567  eV     1   --> A_1  L_1       
     e( 13 - 14) =     10.87476  eV     2   --> E    L_3       
     e( 15 - 16) =     11.01679  eV     2   --> E    L_3       
     e( 17 - 17) =     11.02725  eV     1   --> A_2  L_2       
     e( 18 - 19) =     11.28157  eV     2   --> E    L_3       
     e( 20 - 20) =     11.30055  eV     1   --> A_1  L_1       
     e( 21 - 22) =     14.64865  eV     2   --> E    L_3       

 **************************************************************************

 **************************************************************************

                    xk=(   0.50000,   0.50000,   0.50000  )

     Band symmetry, C_3v (3m)   point group:

     e(  1 -  2) =    -27.40371  eV     2   --> E    L_3       
     e(  3 -  3) =    -25.04441  eV     1   --> A_1  L_1       
     e(  4 -  4) =    -23.33270  eV     1   --> A_1  L_1       
     e(  5 -  6) =    -22.77781  eV     2   --> E    L_3       
     e(  7 -  7) =     -7.37498  eV     1   --> A_1  L_1       
     e(  8 -  9) =     -6.71715  eV     2   --> E    L_3       
     e( 10 - 10) =      5.89183  eV     1   --> A_1  L_1       
     e( 11 - 11) =     10.39820  eV     1   --> A_1  L_1       
     e( 12 - 12) =     10.74577  eV     1   --> A_1  L_1       
     e( 13 - 14) =     10.98114  eV     2   --> E    L_3       
     e( 15 - 15) =     11.03746  eV     1   --> A_2  L_2       
     e( 16 - 17) =     11.14095  eV     2   --> E    L_3       
     e( 18 - 19) =     11.27359  eV     2   --> E    L_3       
     e( 20 - 20) =     11.36432  eV     1   --> A_1  L_1       
     e( 21 - 22) =     14.67872  eV     2   --> E    L_3       

 **************************************************************************

 **************************************************************************

                    xk=(   0.47500,   0.50000,   0.52500  )

     point group C_1 (1)    
     there are  1 classes
     the character table:

       E    
A      1.00

     the symmetry operations in each class and the name of the first element:

     E        1
                                                                 

     Band symmetry, C_1 (1)     point group:

     e(  1 -  1) =    -28.05794  eV     1   --> A              
     e(  2 -  2) =    -28.01234  eV     1   --> A              
     e(  3 -  3) =    -25.32179  eV     1   --> A              
     e(  4 -  4) =    -23.33254  eV     1   --> A              
     e(  5 -  5) =    -22.79546  eV     1   --> A              
     e(  6 -  6) =    -22.77425  eV     1   --> A              
     e(  7 -  7) =     -7.37388  eV     1   --> A              
     e(  8 -  8) =     -6.71976  eV     1   --> A              
     e(  9 -  9) =     -6.71775  eV     1   --> A              
     e( 10 - 10) =      5.89659  eV     1   --> A              
     e( 11 - 11) =     10.37160  eV     1   --> A              
     e( 12 - 12) =     10.72698  eV     1   --> A              
     e( 13 - 13) =     10.96329  eV     1   --> A              
     e( 14 - 14) =     10.97604  eV     1   --> A              
     e( 15 - 15) =     11.02087  eV     1   --> A              
     e( 16 - 16) =     11.13454  eV     1   --> A              
     e( 17 - 17) =     11.14096  eV     1   --> A              
     e( 18 - 18) =     11.26940  eV     1   --> A              
     e( 19 - 19) =     11.29407  eV     1   --> A              
     e( 20 - 20) =     11.35690  eV     1   --> A              
     e( 21 - 21) =     14.67544  eV     1   --> A              
     e( 22 - 22) =     14.69208  eV     1   --> A              

 **************************************************************************

 **************************************************************************

                    xk=(   0.45000,   0.50000,   0.55000  )

     Band symmetry, C_1 (1)     point group:

     e(  1 -  1) =    -29.50585  eV     1   --> A              
     e(  2 -  2) =    -27.86653  eV     1   --> A              
     e(  3 -  3) =    -26.03885  eV     1   --> A              
     e(  4 -  4) =    -25.90131  eV     1   --> A              
     e(  5 -  5) =    -24.00724  eV     1   --> A              
     e(  6 -  6) =    -23.33218  eV     1   --> A              
     e(  7 -  7) =     -7.37064  eV     1   --> A              
     e(  8 -  8) =     -6.72748  eV     1   --> A              
     e(  9 -  9) =     -6.71957  eV     1   --> A              
     e( 10 - 10) =      5.91103  eV     1   --> A              
     e( 11 - 11) =     10.35195  eV     1   --> A              
     e( 12 - 12) =     10.69682  eV     1   --> A              
     e( 13 - 13) =     10.85331  eV     1   --> A              
     e( 14 - 14) =     10.93052  eV     1   --> A              
     e( 15 - 15) =     10.98580  eV     1   --> A              
     e( 16 - 16) =     11.03851  eV     1   --> A              
     e( 17 - 17) =     11.09492  eV     1   --> A              
     e( 18 - 18) =     11.25863  eV     1   --> A              
     e( 19 - 19) =     11.33709  eV     1   --> A              
     e( 20 - 20) =     11.35184  eV     1   --> A              
     e( 21 - 21) =     14.66317  eV     1   --> A              
     e( 22 - 22) =     14.72405  eV     1   --> A              

 **************************************************************************

 **************************************************************************

                    xk=(   0.42500,   0.50000,   0.57500  )

     Band symmetry, C_1 (1)     point group:

     e(  1 -  1) =    -27.54780  eV     1   --> A              
     e(  2 -  2) =    -27.51593  eV     1   --> A              
     e(  3 -  3) =    -25.20992  eV     1   --> A              
     e(  4 -  4) =    -24.78502  eV     1   --> A              
     e(  5 -  5) =    -23.61202  eV     1   --> A              
     e(  6 -  6) =    -23.33136  eV     1   --> A              
     e(  7 -  7) =     -7.36522  eV     1   --> A              
     e(  8 -  8) =     -6.74006  eV     1   --> A              
     e(  9 -  9) =     -6.72258  eV     1   --> A              
     e( 10 - 10) =      5.93523  eV     1   --> A              
     e( 11 - 11) =     10.38901  eV     1   --> A              
     e( 12 - 12) =     10.69509  eV     1   --> A              
     e( 13 - 13) =     10.88435  eV     1   --> A              
     e( 14 - 14) =     10.93855  eV     1   --> A              
     e( 15 - 15) =     10.96980  eV     1   --> A              
     e( 16 - 16) =     11.07346  eV     1   --> A              
     e( 17 - 17) =     11.10930  eV     1   --> A              
     e( 18 - 18) =     11.25999  eV     1   --> A              
     e( 19 - 19) =     11.35334  eV     1   --> A              
     e( 20 - 20) =     11.42986  eV     1   --> A              
     e( 21 - 21) =     14.64804  eV     1   --> A              
     e( 22 - 22) =     14.79034  eV     1   --> A              

 **************************************************************************

 **************************************************************************

                    xk=(   0.40000,   0.50000,   0.60000  )

     Band symmetry, C_1 (1)     point group:

     e(  1 -  1) =    -27.78987  eV     1   --> A              
     e(  2 -  2) =    -27.74209  eV     1   --> A              
     e(  3 -  3) =    -25.16961  eV     1   --> A              
     e(  4 -  4) =    -24.29718  eV     1   --> A              
     e(  5 -  5) =    -23.68485  eV     1   --> A              
     e(  6 -  6) =    -23.33020  eV     1   --> A              
     e(  7 -  7) =     -7.35772  eV     1   --> A              
     e(  8 -  8) =     -6.75721  eV     1   --> A              
     e(  9 -  9) =     -6.72681  eV     1   --> A              
     e( 10 - 10) =      5.96628  eV     1   --> A              
     e( 11 - 11) =     10.33830  eV     1   --> A              
     e( 12 - 12) =     10.65911  eV     1   --> A              
     e( 13 - 13) =     10.91614  eV     1   --> A              
     e( 14 - 14) =     10.91951  eV     1   --> A              
     e( 15 - 15) =     10.97422  eV     1   --> A              
     e( 16 - 16) =     11.06835  eV     1   --> A              
     e( 17 - 17) =     11.10222  eV     1   --> A              
     e( 18 - 18) =     11.24355  eV     1   --> A              
     e( 19 - 19) =     11.30496  eV     1   --> A              
     e( 20 - 20) =     11.52158  eV     1   --> A              
     e( 21 - 21) =     14.62537  eV     1   --> A              
     e( 22 - 22) =     14.87795  eV     1   --> A              

 **************************************************************************

 **************************************************************************

                    xk=(   0.37500,   0.50000,   0.62500  )

     Band symmetry, C_1 (1)     point group:

     e(  1 -  1) =    -28.59737  eV     1   --> A              
     e(  2 -  2) =    -27.24677  eV     1   --> A              
     e(  3 -  3) =    -23.89629  eV     1   --> A              
     e(  4 -  4) =    -23.32871  eV     1   --> A              
     e(  5 -  5) =    -23.32222  eV     1   --> A              
     e(  6 -  6) =    -22.49821  eV     1   --> A              
     e(  7 -  7) =     -7.34821  eV     1   --> A              
     e(  8 -  8) =     -6.77839  eV     1   --> A              
     e(  9 -  9) =     -6.73224  eV     1   --> A              
     e( 10 - 10) =      6.00410  eV     1   --> A              
     e( 11 - 11) =     10.28645  eV     1   --> A              
     e( 12 - 12) =     10.62317  eV     1   --> A              
     e( 13 - 13) =     10.91008  eV     1   --> A              
     e( 14 - 14) =     10.98250  eV     1   --> A              
     e( 15 - 15) =     10.99881  eV     1   --> A              
     e( 16 - 16) =     11.10248  eV     1   --> A              
     e( 17 - 17) =     11.11692  eV     1   --> A              
     e( 18 - 18) =     11.23898  eV     1   --> A              
     e( 19 - 19) =     11.27333  eV     1   --> A              
     e( 20 - 20) =     11.62900  eV     1   --> A              
     e( 21 - 21) =     14.60026  eV     1   --> A              
     e( 22 - 22) =     14.98739  eV     1   --> A              

 **************************************************************************

 **************************************************************************

                    xk=(   0.35000,   0.50000,   0.65000  )

     Band symmetry, C_1 (1)     point group:

     e(  1 -  1) =    -28.36819  eV     1   --> A              
     e(  2 -  2) =    -26.84711  eV     1   --> A              
     e(  3 -  3) =    -23.94107  eV     1   --> A              
     e(  4 -  4) =    -23.68499  eV     1   --> A              
     e(  5 -  5) =    -23.32725  eV     1   --> A              
     e(  6 -  6) =    -22.80327  eV     1   --> A              
     e(  7 -  7) =     -7.33687  eV     1   --> A              
     e(  8 -  8) =     -6.80301  eV     1   --> A              
     e(  9 -  9) =     -6.73887  eV     1   --> A              
     e( 10 - 10) =      6.04745  eV     1   --> A              
     e( 11 - 11) =     10.25183  eV     1   --> A              
     e( 12 - 12) =     10.56808  eV     1   --> A              
     e( 13 - 13) =     10.88886  eV     1   --> A              
     e( 14 - 14) =     10.95016  eV     1   --> A              
     e( 15 - 15) =     11.00385  eV     1   --> A              
     e( 16 - 16) =     11.09536  eV     1   --> A              
     e( 17 - 17) =     11.11898  eV     1   --> A              
     e( 18 - 18) =     11.23199  eV     1   --> A              
     e( 19 - 19) =     11.24703  eV     1   --> A              
     e( 20 - 20) =     11.75002  eV     1   --> A              
     e( 21 - 21) =     14.56418  eV     1   --> A              
     e( 22 - 22) =     15.10768  eV     1   --> A              

 **************************************************************************

 **************************************************************************

                    xk=(   0.32500,   0.50000,   0.67500  )

     Band symmetry, C_1 (1)     point group:

     e(  1 -  1) =    -28.61117  eV     1   --> A              
     e(  2 -  2) =    -28.33007  eV     1   --> A              
     e(  3 -  3) =    -26.59644  eV     1   --> A              
     e(  4 -  4) =    -24.74646  eV     1   --> A              
     e(  5 -  5) =    -23.70993  eV     1   --> A              
     e(  6 -  6) =    -23.32541  eV     1   --> A              
     e(  7 -  7) =     -7.32383  eV     1   --> A              
     e(  8 -  8) =     -6.83037  eV     1   --> A              
     e(  9 -  9) =     -6.74671  eV     1   --> A              
     e( 10 - 10) =      6.09383  eV     1   --> A              
     e( 11 - 11) =     10.19281  eV     1   --> A              
     e( 12 - 12) =     10.48954  eV     1   --> A              
     e( 13 - 13) =     10.85747  eV     1   --> A              
     e( 14 - 14) =     10.90021  eV     1   --> A              
     e( 15 - 15) =     10.94231  eV     1   --> A              
     e( 16 - 16) =     11.03331  eV     1   --> A              
     e( 17 - 17) =     11.06319  eV     1   --> A              
     e( 18 - 18) =     11.15189  eV     1   --> A              
     e( 19 - 19) =     11.22032  eV     1   --> A              
     e( 20 - 20) =     11.87439  eV     1   --> A              
     e( 21 - 21) =     14.51765  eV     1   --> A              
     e( 22 - 22) =     15.23775  eV     1   --> A              

 **************************************************************************

 **************************************************************************

                    xk=(   0.30000,   0.50000,   0.70000  )

     Band symmetry, C_1 (1)     point group:

     e(  1 -  1) =    -28.08311  eV     1   --> A              
     e(  2 -  2) =    -27.92804  eV     1   --> A              
     e(  3 -  3) =    -25.67583  eV     1   --> A              
     e(  4 -  4) =    -23.93632  eV     1   --> A              
     e(  5 -  5) =    -23.32346  eV     1   --> A              
     e(  6 -  6) =    -23.19868  eV     1   --> A              
     e(  7 -  7) =     -7.30921  eV     1   --> A              
     e(  8 -  8) =     -6.85971  eV     1   --> A              
     e(  9 -  9) =     -6.75568  eV     1   --> A              
     e( 10 - 10) =      6.14250  eV     1   --> A              
     e( 11 - 11) =     10.15901  eV     1   --> A              
     e( 12 - 12) =     10.43438  eV     1   --> A              
     e( 13 - 13) =     10.86366  eV     1   --> A              
     e( 14 - 14) =     10.90964  eV     1   --> A              
     e( 15 - 15) =     10.96904  eV     1   --> A              
     e( 16 - 16) =     11.04823  eV     1   --> A              
     e( 17 - 17) =     11.07288  eV     1   --> A              
     e( 18 - 18) =     11.14665  eV     1   --> A              
     e( 19 - 19) =     11.23228  eV     1   --> A              
     e( 20 - 20) =     12.01776  eV     1   --> A              
     e( 21 - 21) =     14.47185  eV     1   --> A              
     e( 22 - 22) =     15.37930  eV     1   --> A              

 **************************************************************************

 **************************************************************************

                    xk=(   0.27500,   0.50000,   0.72500  )

     Band symmetry, C_1 (1)     point group:

     e(  1 -  1) =    -28.01954  eV     1   --> A              
     e(  2 -  2) =    -26.99186  eV     1   --> A              
     e(  3 -  3) =    -25.13529  eV     1   --> A              
     e(  4 -  4) =    -23.39521  eV     1   --> A              
     e(  5 -  5) =    -23.32051  eV     1   --> A              
     e(  6 -  6) =    -22.15494  eV     1   --> A              
     e(  7 -  7) =     -7.29325  eV     1   --> A              
     e(  8 -  8) =     -6.89027  eV     1   --> A              
     e(  9 -  9) =     -6.76575  eV     1   --> A              
     e( 10 - 10) =      6.19060  eV     1   --> A              
     e( 11 - 11) =     10.11092  eV     1   --> A              
     e( 12 - 12) =     10.38440  eV     1   --> A              
     e( 13 - 13) =     10.90072  eV     1   --> A              
     e( 14 - 14) =     10.93200  eV     1   --> A              
     e( 15 - 15) =     10.99726  eV     1   --> A              
     e( 16 - 16) =     11.05294  eV     1   --> A              
     e( 17 - 17) =     11.07502  eV     1   --> A              
     e( 18 - 18) =     11.14654  eV     1   --> A              
     e( 19 - 19) =     11.23344  eV     1   --> A              
     e( 20 - 20) =     12.17181  eV     1   --> A              
     e( 21 - 21) =     14.43213  eV     1   --> A              
     e( 22 - 22) =     15.52873  eV     1   --> A              

 **************************************************************************

 **************************************************************************

                    xk=(   0.25000,   0.50000,   0.75000  )

     Band symmetry, C_1 (1)     point group:

     e(  1 -  1) =    -28.97258  eV     1   --> A              
     e(  2 -  2) =    -27.42853  eV     1   --> A              
     e(  3 -  3) =    -26.41099  eV     1   --> A              
     e(  4 -  4) =    -25.30707  eV     1   --> A              
     e(  5 -  5) =    -23.92905  eV     1   --> A              
     e(  6 -  6) =    -23.31922  eV     1   --> A              
     e(  7 -  7) =     -7.27624  eV     1   --> A              
     e(  8 -  8) =     -6.92125  eV     1   --> A              
     e(  9 -  9) =     -6.77689  eV     1   --> A              
     e( 10 - 10) =      6.23643  eV     1   --> A              
     e( 11 - 11) =     10.04681  eV     1   --> A              
     e( 12 - 12) =     10.33300  eV     1   --> A              
     e( 13 - 13) =     10.83346  eV     1   --> A              
     e( 14 - 14) =     10.88223  eV     1   --> A              
     e( 15 - 15) =     10.94973  eV     1   --> A              
     e( 16 - 16) =     10.98336  eV     1   --> A              
     e( 17 - 17) =     11.05096  eV     1   --> A              
     e( 18 - 18) =     11.10171  eV     1   --> A              
[...]
     e(  6 -  6) =    -23.38020  eV     1   --> A'             
     e(  7 -  7) =     -6.91914  eV     1   --> A'             
     e(  8 -  8) =     -6.72188  eV     1   --> A'             
     e(  9 -  9) =     -6.64879  eV     1   --> A''            
     e( 10 - 10) =      5.52393  eV     1   --> A'             
     e( 11 - 11) =      9.57319  eV     1   --> A'             
     e( 12 - 12) =     10.73305  eV     1   --> A'             
     e( 13 - 13) =     10.81537  eV     1   --> A''            
     e( 14 - 14) =     10.86089  eV     1   --> A''            
     e( 15 - 15) =     10.87199  eV     1   --> A'             
     e( 16 - 16) =     10.91169  eV     1   --> A'             
     e( 17 - 17) =     11.08131  eV     1   --> A''            
     e( 18 - 18) =     11.08683  eV     1   --> A'             
     e( 19 - 19) =     11.74664  eV     1   --> A'             
     e( 20 - 20) =     12.01038  eV     1   --> A''            
     e( 21 - 21) =     12.70715  eV     1   --> A''            
     e( 22 - 22) =     13.72934  eV     1   --> A'             

 **************************************************************************

 **************************************************************************

                    xk=(   0.00000,   0.25000,   0.25000  )

     Band symmetry, C_s (m)     point group:

     e(  1 -  1) =    -27.19644  eV     1   --> A'             
     e(  2 -  2) =    -26.38545  eV     1   --> A'             
     e(  3 -  3) =    -25.95512  eV     1   --> A''            
     e(  4 -  4) =    -25.81347  eV     1   --> A''            
     e(  5 -  5) =    -24.08030  eV     1   --> A'             
     e(  6 -  6) =    -23.38544  eV     1   --> A'             
     e(  7 -  7) =     -6.87907  eV     1   --> A'             
     e(  8 -  8) =     -6.70472  eV     1   --> A'             
     e(  9 -  9) =     -6.64401  eV     1   --> A''            
     e( 10 - 10) =      5.43476  eV     1   --> A'             
     e( 11 - 11) =      9.61027  eV     1   --> A'             
     e( 12 - 12) =     10.79932  eV     1   --> A'             
     e( 13 - 13) =     10.82312  eV     1   --> A''            
     e( 14 - 14) =     10.89642  eV     1   --> A''            
     e( 15 - 15) =     10.91209  eV     1   --> A'             
     e( 16 - 16) =     10.95211  eV     1   --> A'             
     e( 17 - 17) =     11.09314  eV     1   --> A''            
     e( 18 - 18) =     11.14260  eV     1   --> A'             
     e( 19 - 19) =     11.74917  eV     1   --> A'             
     e( 20 - 20) =     11.92573  eV     1   --> A''            
     e( 21 - 21) =     12.77930  eV     1   --> A''            
     e( 22 - 22) =     13.61387  eV     1   --> A'             

 **************************************************************************

 **************************************************************************

                    xk=(   0.00000,   0.22500,   0.22500  )

     Band symmetry, C_s (m)     point group:

     e(  1 -  1) =    -27.77057  eV     1   --> A'             
     e(  2 -  2) =    -27.74488  eV     1   --> A''            
     e(  3 -  3) =    -26.57083  eV     1   --> A'             
     e(  4 -  4) =    -25.91756  eV     1   --> A''            
     e(  5 -  5) =    -24.59566  eV     1   --> A'             
     e(  6 -  6) =    -23.39049  eV     1   --> A'             
     e(  7 -  7) =     -6.83920  eV     1   --> A'             
     e(  8 -  8) =     -6.68922  eV     1   --> A'             
     e(  9 -  9) =     -6.63982  eV     1   --> A''            
     e( 10 - 10) =      5.34556  eV     1   --> A'             
     e( 11 - 11) =      9.64036  eV     1   --> A'             
     e( 12 - 12) =     10.76112  eV     1   --> A''            
     e( 13 - 13) =     10.81298  eV     1   --> A'             
     e( 14 - 14) =     10.89734  eV     1   --> A''            
     e( 15 - 15) =     10.89950  eV     1   --> A'             
     e( 16 - 16) =     10.95019  eV     1   --> A'             
     e( 17 - 17) =     11.04761  eV     1   --> A''            
     e( 18 - 18) =     11.14471  eV     1   --> A'             
     e( 19 - 19) =     11.73112  eV     1   --> A'             
     e( 20 - 20) =     11.82897  eV     1   --> A''            
     e( 21 - 21) =     12.85072  eV     1   --> A''            
     e( 22 - 22) =     13.51832  eV     1   --> A'             

 **************************************************************************

 **************************************************************************

                    xk=(   0.00000,   0.20000,   0.20000  )

     Band symmetry, C_s (m)     point group:

     e(  1 -  1) =    -27.77129  eV     1   --> A'             
     e(  2 -  2) =    -27.73072  eV     1   --> A''            
     e(  3 -  3) =    -26.57179  eV     1   --> A'             
     e(  4 -  4) =    -25.94415  eV     1   --> A''            
     e(  5 -  5) =    -24.58603  eV     1   --> A'             
     e(  6 -  6) =    -23.39519  eV     1   --> A'             
     e(  7 -  7) =     -6.80036  eV     1   --> A'             
     e(  8 -  8) =     -6.67533  eV     1   --> A'             
     e(  9 -  9) =     -6.63616  eV     1   --> A''            
     e( 10 - 10) =      5.25908  eV     1   --> A'             
     e( 11 - 11) =      9.68698  eV     1   --> A'             
     e( 12 - 12) =     10.75236  eV     1   --> A''            
     e( 13 - 13) =     10.83043  eV     1   --> A'             
     e( 14 - 14) =     10.89394  eV     1   --> A'             
     e( 15 - 15) =     10.92119  eV     1   --> A''            
     e( 16 - 16) =     10.96278  eV     1   --> A'             
     e( 17 - 17) =     11.05388  eV     1   --> A''            
     e( 18 - 18) =     11.16687  eV     1   --> A'             
     e( 19 - 19) =     11.69768  eV     1   --> A'             
     e( 20 - 20) =     11.73828  eV     1   --> A''            
     e( 21 - 21) =     12.93025  eV     1   --> A''            
     e( 22 - 22) =     13.44915  eV     1   --> A'             

 **************************************************************************

 **************************************************************************

                    xk=(   0.00000,   0.17500,   0.17500  )

     Band symmetry, C_s (m)     point group:

     e(  1 -  1) =    -27.76294  eV     1   --> A'             
     e(  2 -  2) =    -27.70935  eV     1   --> A''            
     e(  3 -  3) =    -26.56441  eV     1   --> A'             
     e(  4 -  4) =    -25.96276  eV     1   --> A''            
     e(  5 -  5) =    -24.56908  eV     1   --> A'             
     e(  6 -  6) =    -23.39951  eV     1   --> A'             
     e(  7 -  7) =     -6.76343  eV     1   --> A'             
     e(  8 -  8) =     -6.66308  eV     1   --> A'             
     e(  9 -  9) =     -6.63301  eV     1   --> A''            
     e( 10 - 10) =      5.17714  eV     1   --> A'             
     e( 11 - 11) =      9.74163  eV     1   --> A'             
     e( 12 - 12) =     10.74683  eV     1   --> A''            
     e( 13 - 13) =     10.84778  eV     1   --> A'             
     e( 14 - 14) =     10.89098  eV     1   --> A'             
     e( 15 - 15) =     10.94941  eV     1   --> A''            
     e( 16 - 16) =     10.98085  eV     1   --> A'             
     e( 17 - 17) =     11.06050  eV     1   --> A''            
     e( 18 - 18) =     11.19220  eV     1   --> A'             
     e( 19 - 19) =     11.64983  eV     1   --> A'             
     e( 20 - 20) =     11.65336  eV     1   --> A''            
     e( 21 - 21) =     13.00949  eV     1   --> A''            
     e( 22 - 22) =     13.40204  eV     1   --> A'             

 **************************************************************************

 **************************************************************************

                    xk=(   0.00000,   0.15000,   0.15000  )

     Band symmetry, C_s (m)     point group:

     e(  1 -  1) =    -27.32430  eV     1   --> A''            
     e(  2 -  2) =    -27.29065  eV     1   --> A'             
     e(  3 -  3) =    -25.77424  eV     1   --> A'             
     e(  4 -  4) =    -24.49667  eV     1   --> A'             
     e(  5 -  5) =    -24.42253  eV     1   --> A''            
     e(  6 -  6) =    -23.40337  eV     1   --> A'             
     e(  7 -  7) =     -6.72927  eV     1   --> A'             
     e(  8 -  8) =     -6.65248  eV     1   --> A'             
     e(  9 -  9) =     -6.63034  eV     1   --> A''            
     e( 10 - 10) =      5.10169  eV     1   --> A'             
     e( 11 - 11) =      9.80570  eV     1   --> A'             
     e( 12 - 12) =     10.79206  eV     1   --> A''            
     e( 13 - 13) =     10.87469  eV     1   --> A'             
     e( 14 - 14) =     10.91191  eV     1   --> A'             
     e( 15 - 15) =     11.00631  eV     1   --> A'             
     e( 16 - 16) =     11.01930  eV     1   --> A''            
     e( 17 - 17) =     11.08736  eV     1   --> A''            
     e( 18 - 18) =     11.22205  eV     1   --> A'             
     e( 19 - 19) =     11.59076  eV     1   --> A''            
     e( 20 - 20) =     11.59271  eV     1   --> A'             
     e( 21 - 21) =     13.08610  eV     1   --> A''            
     e( 22 - 22) =     13.37251  eV     1   --> A'             

 **************************************************************************

 **************************************************************************

                    xk=(   0.00000,   0.12500,   0.12500  )

     Band symmetry, C_s (m)     point group:

     e(  1 -  1) =    -27.84179  eV     1   --> A''            
     e(  2 -  2) =    -27.07748  eV     1   --> A'             
     e(  3 -  3) =    -25.54902  eV     1   --> A'             
     e(  4 -  4) =    -24.82662  eV     1   --> A'             
     e(  5 -  5) =    -23.86162  eV     1   --> A''            
     e(  6 -  6) =    -23.40676  eV     1   --> A'             
     e(  7 -  7) =     -6.69872  eV     1   --> A'             
     e(  8 -  8) =     -6.64354  eV     1   --> A'             
     e(  9 -  9) =     -6.62817  eV     1   --> A''            
     e( 10 - 10) =      5.03438  eV     1   --> A'             
     e( 11 - 11) =      9.86071  eV     1   --> A'             
     e( 12 - 12) =     10.85553  eV     1   --> A''            
     e( 13 - 13) =     10.86522  eV     1   --> A'             
     e( 14 - 14) =     10.89095  eV     1   --> A'             
     e( 15 - 15) =     11.03748  eV     1   --> A'             
     e( 16 - 16) =     11.04549  eV     1   --> A''            
     e( 17 - 17) =     11.06457  eV     1   --> A''            
     e( 18 - 18) =     11.24557  eV     1   --> A'             
     e( 19 - 19) =     11.51855  eV     1   --> A''            
     e( 20 - 20) =     11.54184  eV     1   --> A'             
     e( 21 - 21) =     13.15590  eV     1   --> A''            
     e( 22 - 22) =     13.35435  eV     1   --> A'             

 **************************************************************************

 **************************************************************************

                    xk=(   0.00000,   0.10000,   0.10000  )

     Band symmetry, C_s (m)     point group:

     e(  1 -  1) =    -27.81089  eV     1   --> A''            
     e(  2 -  2) =    -27.04992  eV     1   --> A'             
     e(  3 -  3) =    -25.52830  eV     1   --> A'             
     e(  4 -  4) =    -24.80527  eV     1   --> A'             
     e(  5 -  5) =    -23.88041  eV     1   --> A''            
     e(  6 -  6) =    -23.40959  eV     1   --> A'             
     e(  7 -  7) =     -6.67257  eV     1   --> A'             
     e(  8 -  8) =     -6.63624  eV     1   --> A'             
     e(  9 -  9) =     -6.62641  eV     1   --> A''            
     e( 10 - 10) =      4.97691  eV     1   --> A'             
     e( 11 - 11) =      9.92109  eV     1   --> A'             
     e( 12 - 12) =     10.85368  eV     1   --> A''            
     e( 13 - 13) =     10.88072  eV     1   --> A'             
     e( 14 - 14) =     10.89148  eV     1   --> A'             
     e( 15 - 15) =     11.06411  eV     1   --> A''            
     e( 16 - 16) =     11.07020  eV     1   --> A'             
     e( 17 - 17) =     11.08533  eV     1   --> A''            
     e( 18 - 18) =     11.27194  eV     1   --> A'             
     e( 19 - 19) =     11.45090  eV     1   --> A''            
     e( 20 - 20) =     11.47692  eV     1   --> A'             
     e( 21 - 21) =     13.21865  eV     1   --> A''            
     e( 22 - 22) =     13.34517  eV     1   --> A'             

 **************************************************************************

 **************************************************************************

                    xk=(   0.00000,   0.07500,   0.07500  )

     Band symmetry, C_s (m)     point group:

     e(  1 -  1) =    -28.99613  eV     1   --> A''            
     e(  2 -  2) =    -27.57226  eV     1   --> A'             
     e(  3 -  3) =    -25.83293  eV     1   --> A'             
     e(  4 -  4) =    -24.86296  eV     1   --> A''            
     e(  5 -  5) =    -24.79898  eV     1   --> A'             
     e(  6 -  6) =    -23.41185  eV     1   --> A'             
     e(  7 -  7) =     -6.65147  eV     1   --> A'             
     e(  8 -  8) =     -6.63058  eV     1   --> A'             
     e(  9 -  9) =     -6.62508  eV     1   --> A''            
     e( 10 - 10) =      4.93063  eV     1   --> A'             
     e( 11 - 11) =      9.96317  eV     1   --> A'             
     e( 12 - 12) =     10.85302  eV     1   --> A''            
     e( 13 - 13) =     10.85557  eV     1   --> A'             
     e( 14 - 14) =     10.86545  eV     1   --> A'             
     e( 15 - 15) =     11.06045  eV     1   --> A''            
     e( 16 - 16) =     11.07028  eV     1   --> A''            
     e( 17 - 17) =     11.08933  eV     1   --> A'             
     e( 18 - 18) =     11.29281  eV     1   --> A'             
     e( 19 - 19) =     11.38343  eV     1   --> A''            
     e( 20 - 20) =     11.41373  eV     1   --> A'             
     e( 21 - 21) =     13.26905  eV     1   --> A''            
     e( 22 - 22) =     13.34007  eV     1   --> A'             

 **************************************************************************

 **************************************************************************

                    xk=(   0.00000,   0.05000,   0.05000  )

     Band symmetry, C_s (m)     point group:

     e(  1 -  1) =    -29.07362  eV     1   --> A''            
     e(  2 -  2) =    -28.02908  eV     1   --> A'             
     e(  3 -  3) =    -27.62767  eV     1   --> A'             
     e(  4 -  4) =    -25.37014  eV     1   --> A'             
     e(  5 -  5) =    -24.90664  eV     1   --> A''            
     e(  6 -  6) =    -23.41348  eV     1   --> A'             
     e(  7 -  7) =     -6.63598  eV     1   --> A'             
     e(  8 -  8) =     -6.62657  eV     1   --> A'             
     e(  9 -  9) =     -6.62413  eV     1   --> A''            
     e( 10 - 10) =      4.89669  eV     1   --> A'             
     e( 11 - 11) =      9.98598  eV     1   --> A'             
     e( 12 - 12) =     10.81574  eV     1   --> A'             
     e( 13 - 13) =     10.85545  eV     1   --> A''            
     e( 14 - 14) =     10.86256  eV     1   --> A'             
     e( 15 - 15) =     11.06624  eV     1   --> A''            
     e( 16 - 16) =     11.07800  eV     1   --> A'             
     e( 17 - 17) =     11.08914  eV     1   --> A''            
     e( 18 - 18) =     11.29796  eV     1   --> A'             
     e( 19 - 19) =     11.33427  eV     1   --> A''            
     e( 20 - 20) =     11.34456  eV     1   --> A'             
     e( 21 - 21) =     13.30749  eV     1   --> A''            
     e( 22 - 22) =     13.33671  eV     1   --> A'             

 **************************************************************************

 **************************************************************************

                    xk=(   0.00000,   0.02500,   0.02500  )

     Band symmetry, C_s (m)     point group:

     e(  1 -  1) =    -32.58755  eV     1   --> A''            
     e(  2 -  2) =    -31.37071  eV     1   --> A'             
     e(  3 -  3) =    -29.53124  eV     1   --> A'             
     e(  4 -  4) =    -26.99528  eV     1   --> A'             
     e(  5 -  5) =    -26.58961  eV     1   --> A''            
     e(  6 -  6) =    -23.41458  eV     1   --> A'             
     e(  7 -  7) =     -6.62657  eV     1   --> A'             
     e(  8 -  8) =     -6.62421  eV     1   --> A'             
     e(  9 -  9) =     -6.62363  eV     1   --> A''            
     e( 10 - 10) =      4.87516  eV     1   --> A'             
     e( 11 - 11) =      9.90087  eV     1   --> A'             
     e( 12 - 12) =     10.73127  eV     1   --> A''            
     e( 13 - 13) =     10.77923  eV     1   --> A'             
     e( 14 - 14) =     10.80775  eV     1   --> A'             
     e( 15 - 15) =     10.95271  eV     1   --> A''            
     e( 16 - 16) =     11.01505  eV     1   --> A''            
     e( 17 - 17) =     11.01908  eV     1   --> A'             
     e( 18 - 18) =     11.29496  eV     1   --> A'             
     e( 19 - 19) =     11.30064  eV     1   --> A''            
     e( 20 - 20) =     11.30644  eV     1   --> A'             
     e( 21 - 21) =     13.32736  eV     1   --> A''            
     e( 22 - 22) =     13.33457  eV     1   --> A'             

 **************************************************************************

 **************************************************************************

                    xk=(   0.00000,   0.00000,   0.00000  )

     point group T_d (-43m) 
     there are  5 classes
     the character table:

       E     8C3   3C2   6S4   6s_d 
A_1    1.00  1.00  1.00  1.00  1.00
A_2    1.00  1.00  1.00 -1.00 -1.00
E      2.00 -1.00  2.00  0.00  0.00
T_1    3.00  0.00 -1.00  1.00 -1.00
T_2    3.00  0.00 -1.00 -1.00  1.00

     the symmetry operations in each class and the name of the first element:

     E        1
                                                                 
     8C3      5    7    8    6   12    9   10   11
                                                                 
     3C2      2    3    4
                                                                 
     6S4     15   16   20   19   23   24
                                                                 
     6s_d    13   14   17   18   21   22
                                                                 

     Band symmetry, T_d (-43m)  point group:

     e(  1 -  3) =    -35.59030  eV     3   --> T_2  G_15 P_4  
     e(  4 -  5) =    -30.55473  eV     2   --> E    G_12 P_3  
     e(  6 -  6) =    -23.41505  eV     1   --> A_1  G_1  P_1  
     e(  7 -  9) =     -6.62350  eV     3   --> T_2  G_15 P_4  
     e( 10 - 10) =      4.86628  eV     1   --> A_1  G_1  P_1  
     e( 11 - 11) =      9.74053  eV     1   --> A_1  G_1  P_1  
     e( 12 - 14) =     10.60409  eV     3   --> T_2  G_15 P_4  
     e( 15 - 17) =     10.84787  eV     3   --> T_1  G_25 P_5  
     e( 18 - 20) =     11.29005  eV     3   --> T_2  G_15 P_4  
     e( 21 - 22) =     13.32900  eV     2   --> E    G_12 P_3  

 **************************************************************************

     BANDS        :      9.06s CPU      9.43s WALL


   This run was terminated on:   4:36:21  13Dec2019            

=------------------------------------------------------------------------------=
   JOB DONE.
=------------------------------------------------------------------------------=
