
     Program DOS v.6.4.1 starts on 13Dec2019 at  4:50:18 

     This program is part of the open-source Quantum ESPRESSO suite
     for quantum simulation of materials; please cite
         "P. Giannozzi et al., J. Phys.:Condens. Matter 21 395502 (2009);
         "P. Giannozzi et al., J. Phys.:Condens. Matter 29 465901 (2017);
          URL http://www.quantum-espresso.org", 
     in publications or presentations arising from this work. More details at
     http://www.quantum-espresso.org/quote

     Parallel version (MPI), running on     4 processors

     MPI processes distributed on     1 nodes
     R & G space division:  proc/nbgrp/npool/nimage =       4

     IMPORTANT: XC functional enforced from input :
     Exchange-correlation      = PBE ( 1  4  3  4 0 0)
     Any further DFT definition will be discarded
     Please, verify this is what you really want

               file La.pbe-spdfn-kjpaw_psl.1.0.0.UPF: wavefunction(s)  5S 5D 4F renormalized
               file H.pbe-kjpaw_psl.1.0.0.UPF: wavefunction(s)  1S renormalized

     Parallelization info
     --------------------
     sticks:   dense  smooth     PW     G-vecs:    dense   smooth      PW
     Min         159     159     49                 2621     2621     451
     Max         160     160     50                 2624     2624     453
     Sum         637     637    199                10489    10489    1807


     Check: negative core charge=   -0.000011

     Gaussian broadening (read from file): ngauss,degauss=  -1    0.010000


     DOS          :      1.54s CPU      1.59s WALL


   This run was terminated on:   4:50:20  13Dec2019            

=------------------------------------------------------------------------------=
   JOB DONE.
=------------------------------------------------------------------------------=
