
     Program PWSCF v.6.4.1 starts on  5Dec2019 at 19: 8: 8 

     This program is part of the open-source Quantum ESPRESSO suite
     for quantum simulation of materials; please cite
         "P. Giannozzi et al., J. Phys.:Condens. Matter 21 395502 (2009);
         "P. Giannozzi et al., J. Phys.:Condens. Matter 29 465901 (2017);
          URL http://www.quantum-espresso.org", 
     in publications or presentations arising from this work. More details at
     http://www.quantum-espresso.org/quote

     Parallel version (MPI), running on     4 processors

     MPI processes distributed on     1 nodes
     R & G space division:  proc/nbgrp/npool/nimage =       4
     Reading input from CaF2.vc_relax.in

     Current dimensions of program PWSCF are:
     Max number of different atomic species (ntypx) = 10
     Max number of k-points (npk) =  40000
     Max angular momentum in pseudopotentials (lmaxx) =  3
               file La.pbe-spdfn-rrkjus_psl.1.0.0.UPF: wavefunction(s)  5S 4F renormalized
               file F.pbe-n-rrkjus_psl.1.0.0.UPF: wavefunction(s)  2S renormalized

     Subspace diagonalization in iterative solution of the eigenvalue problem:
     a serial algorithm will be used


     Parallelization info
     --------------------
     sticks:   dense  smooth     PW     G-vecs:    dense   smooth      PW
     Min         139     139     40                 2152     2152     362
     Max         140     140     41                 2153     2153     366
     Sum         559     559    163                 8609     8609    1459



     bravais-lattice index     =            2
     lattice parameter (alat)  =      10.0000  a.u.
     unit-cell volume          =     250.0000 (a.u.)^3
     number of atoms/cell      =            2
     number of atomic types    =            2
     number of electrons       =        28.00
     number of Kohn-Sham states=           18
     kinetic-energy cutoff     =      40.0000  Ry
     charge density cutoff     =     160.0000  Ry
     convergence threshold     =      1.0E-06
     mixing beta               =       0.7000
     number of iterations used =            8  plain     mixing
     Exchange-correlation      = PBE ( 1  4  3  4 0 0)
     nstep                     =           50


     celldm(1)=  10.000000  celldm(2)=   0.000000  celldm(3)=   0.000000
     celldm(4)=   0.000000  celldm(5)=   0.000000  celldm(6)=   0.000000

     crystal axes: (cart. coord. in units of alat)
               a(1) = (  -0.500000   0.000000   0.500000 )  
               a(2) = (   0.000000   0.500000   0.500000 )  
               a(3) = (  -0.500000   0.500000   0.000000 )  

     reciprocal axes: (cart. coord. in units 2 pi/alat)
               b(1) = ( -1.000000 -1.000000  1.000000 )  
               b(2) = (  1.000000  1.000000  1.000000 )  
               b(3) = ( -1.000000  1.000000 -1.000000 )  


     PseudoPot. # 1 for La read from file:
     /home/adikshith/qe-6.4.1/pslibrary.1.0.0/pbe/PSEUDOPOTENTIALS/La.pbe-spdfn-rrkjus_psl.1.0.0.UPF
     MD5 check sum: 67c7391081f7f1061cca01c3c0960019
     Pseudo is Ultrasoft + core correction, Zval = 21.0
     Generated using "atomic" code by A. Dal Corso v.6.4.1
     Using radial grid of 1253 points,  8 beta functions with: 
                l(1) =   0
                l(2) =   0
                l(3) =   1
                l(4) =   1
                l(5) =   2
                l(6) =   2
                l(7) =   3
                l(8) =   3
     Q(r) pseudized with 0 coefficients 


     PseudoPot. # 2 for F  read from file:
     /home/adikshith/qe-6.4.1/pslibrary.1.0.0/pbe/PSEUDOPOTENTIALS/F.pbe-n-rrkjus_psl.1.0.0.UPF
     MD5 check sum: c37501616ac78d8cc31887c65627100a
     Pseudo is Ultrasoft + core correction, Zval =  7.0
     Generated using "atomic" code by A. Dal Corso v.6.4.1
     Using radial grid of 1105 points,  4 beta functions with: 
                l(1) =   0
                l(2) =   0
                l(3) =   1
                l(4) =   1
     Q(r) pseudized with 0 coefficients 


     atomic species   valence    mass     pseudopotential
        La            21.00    57.07800     La( 1.00)
        F              7.00    18.99800     F ( 1.00)

      4 Sym. Ops. (no inversion) found



   Cartesian axes

     site n.     atom                  positions (alat units)
         1           La  tau(   1) = (   0.0000000   0.0000000   0.0000000  )
         2           F   tau(   2) = (   0.2000000   0.2500000   0.2500000  )

     number of k points=    18  gaussian smearing, width (Ry)=  0.0200
                       cart. coord. in units 2pi/alat
        k(    1) = (   0.0000000   0.0000000   0.0000000), wk =   0.0312500
        k(    2) = (  -0.2500000   0.2500000  -0.2500000), wk =   0.1250000
        k(    3) = (   0.5000000  -0.5000000   0.5000000), wk =   0.0625000
        k(    4) = (   0.0000000   0.5000000   0.0000000), wk =   0.1250000
        k(    5) = (   0.7500000  -0.2500000   0.7500000), wk =   0.2500000
        k(    6) = (   0.5000000   0.0000000   0.5000000), wk =   0.2500000
        k(    7) = (   0.0000000  -1.0000000   0.0000000), wk =   0.0625000
        k(    8) = (  -0.5000000  -1.0000000   0.0000000), wk =   0.0625000
        k(    9) = (  -0.2500000   0.2500000   0.2500000), wk =   0.1250000
        k(   10) = (   0.5000000  -0.5000000  -0.5000000), wk =   0.0625000
        k(   11) = (   0.5000000   0.0000000   0.0000000), wk =   0.0625000
        k(   12) = (  -0.2500000   0.7500000  -0.7500000), wk =   0.1250000
        k(   13) = (   0.2500000  -0.7500000  -0.7500000), wk =   0.1250000
        k(   14) = (   0.7500000   0.2500000   0.7500000), wk =   0.2500000
        k(   15) = (   0.0000000   0.5000000  -0.5000000), wk =   0.0625000
        k(   16) = (   0.0000000  -0.5000000  -0.5000000), wk =   0.0625000
        k(   17) = (  -1.0000000   0.0000000   0.0000000), wk =   0.0312500
        k(   18) = (  -1.0000000  -0.5000000   0.0000000), wk =   0.1250000

     Dense  grid:     8609 G-vectors     FFT dimensions: (  30,  30,  30)

     Estimated max dynamical RAM per process >      29.16 MB

     Estimated total dynamical RAM >     116.65 MB

     Check: negative core charge=   -0.000015

     Initial potential from superposition of free atoms

     starting charge   27.99146, renormalised to   28.00000
     Starting wfcs are   26 randomized atomic wfcs

     total cpu time spent up to now is        2.0 secs

     Self-consistent Calculation

     iteration #  1     ecut=    40.00 Ry     beta= 0.70
     Davidson diagonalization with overlap
     ethr =  1.00E-02,  avg # of iterations =  2.2

     total cpu time spent up to now is        2.6 secs

     total energy              =    -383.76450129 Ry
     Harris-Foulkes estimate   =    -384.42860887 Ry
     estimated scf accuracy    <       1.65454057 Ry

     iteration #  2     ecut=    40.00 Ry     beta= 0.70
     Davidson diagonalization with overlap
     ethr =  5.91E-03,  avg # of iterations =  3.7

     total cpu time spent up to now is        3.1 secs

     total energy              =    -383.36105217 Ry
     Harris-Foulkes estimate   =    -384.52249321 Ry
     estimated scf accuracy    <       2.64594703 Ry

     iteration #  3     ecut=    40.00 Ry     beta= 0.70
     Davidson diagonalization with overlap
     ethr =  5.91E-03,  avg # of iterations =  4.0

     negative rho (up, down):  2.966E-02 0.000E+00

     total cpu time spent up to now is        3.7 secs

     total energy              =    -384.89210636 Ry
     Harris-Foulkes estimate   =    -384.38420243 Ry
     estimated scf accuracy    <       0.35526169 Ry

     iteration #  4     ecut=    40.00 Ry     beta= 0.70
     Davidson diagonalization with overlap
     ethr =  1.27E-03,  avg # of iterations =  4.1

     total cpu time spent up to now is        4.5 secs

     total energy              =    -364.45509719 Ry
     Harris-Foulkes estimate   =    -393.25692931 Ry
     estimated scf accuracy    <      44.34701804 Ry

     iteration #  5     ecut=    40.00 Ry     beta= 0.70
     Davidson diagonalization with overlap
     ethr =  1.27E-03,  avg # of iterations =  5.8

     total cpu time spent up to now is        5.2 secs

     total energy              =    -384.51268619 Ry
     Harris-Foulkes estimate   =    -384.97881116 Ry
     estimated scf accuracy    <       5.04713064 Ry

     iteration #  6     ecut=    40.00 Ry     beta= 0.70
     Davidson diagonalization with overlap
     ethr =  1.27E-03,  avg # of iterations =  2.7

     negative rho (up, down):  7.893E-08 0.000E+00

     total cpu time spent up to now is        5.6 secs

     total energy              =    -382.34214880 Ry
     Harris-Foulkes estimate   =    -384.58179755 Ry
     estimated scf accuracy    <       2.49762557 Ry

     iteration #  7     ecut=    40.00 Ry     beta= 0.70
     Davidson diagonalization with overlap
     ethr =  1.27E-03,  avg # of iterations =  5.6

     negative rho (up, down):  4.098E-05 0.000E+00

     total cpu time spent up to now is        6.2 secs

     total energy              =    -384.39873240 Ry
     Harris-Foulkes estimate   =    -384.22425423 Ry
     estimated scf accuracy    <       0.07724940 Ry

     iteration #  8     ecut=    40.00 Ry     beta= 0.70
     Davidson diagonalization with overlap
     ethr =  2.76E-04,  avg # of iterations =  5.1

     total cpu time spent up to now is        6.9 secs

     total energy              =    -381.29097187 Ry
     Harris-Foulkes estimate   =    -386.40578635 Ry
     estimated scf accuracy    <      12.90429829 Ry

     iteration #  9     ecut=    40.00 Ry     beta= 0.70
     Davidson diagonalization with overlap
     ethr =  2.76E-04,  avg # of iterations =  5.8

     total cpu time spent up to now is        7.5 secs

     total energy              =    -384.19389629 Ry
     Harris-Foulkes estimate   =    -384.20043356 Ry
     estimated scf accuracy    <       0.03442428 Ry

     iteration # 10     ecut=    40.00 Ry     beta= 0.70
     Davidson diagonalization with overlap
     ethr =  1.23E-04,  avg # of iterations =  4.6

     total cpu time spent up to now is        8.0 secs

     total energy              =    -384.17586225 Ry
     Harris-Foulkes estimate   =    -384.20361171 Ry
     estimated scf accuracy    <       0.02313572 Ry

     iteration # 11     ecut=    40.00 Ry     beta= 0.70
     Davidson diagonalization with overlap
     ethr =  8.26E-05,  avg # of iterations =  4.8

     total cpu time spent up to now is        8.5 secs

     total energy              =    -384.18836156 Ry
     Harris-Foulkes estimate   =    -384.18537551 Ry
     estimated scf accuracy    <       0.01531707 Ry

     iteration # 12     ecut=    40.00 Ry     beta= 0.70
     Davidson diagonalization with overlap
     ethr =  5.47E-05,  avg # of iterations =  1.4

     total cpu time spent up to now is        8.9 secs

     total energy              =    -384.17529918 Ry
     Harris-Foulkes estimate   =    -384.18866780 Ry
     estimated scf accuracy    <       0.01823252 Ry

     iteration # 13     ecut=    40.00 Ry     beta= 0.70
     Davidson diagonalization with overlap
     ethr =  5.47E-05,  avg # of iterations =  2.3

     total cpu time spent up to now is        9.3 secs

     total energy              =    -384.15149276 Ry
     Harris-Foulkes estimate   =    -384.17697067 Ry
     estimated scf accuracy    <       0.01191057 Ry

     iteration # 14     ecut=    40.00 Ry     beta= 0.70
     Davidson diagonalization with overlap
     ethr =  4.25E-05,  avg # of iterations =  4.3

     total cpu time spent up to now is        9.8 secs

     total energy              =    -384.13963652 Ry
     Harris-Foulkes estimate   =    -384.15849916 Ry
     estimated scf accuracy    <       0.00444323 Ry

     iteration # 15     ecut=    40.00 Ry     beta= 0.70
     Davidson diagonalization with overlap
     ethr =  1.59E-05,  avg # of iterations =  5.9

     total cpu time spent up to now is       10.4 secs

     total energy              =    -384.15208813 Ry
     Harris-Foulkes estimate   =    -384.14662703 Ry
     estimated scf accuracy    <       0.00155793 Ry

     iteration # 16     ecut=    40.00 Ry     beta= 0.70
     Davidson diagonalization with overlap
     ethr =  5.56E-06,  avg # of iterations =  6.4

     total cpu time spent up to now is       11.1 secs

     total energy              =    -384.13930838 Ry
     Harris-Foulkes estimate   =    -384.16009311 Ry
     estimated scf accuracy    <       0.00731437 Ry

     iteration # 17     ecut=    40.00 Ry     beta= 0.70
     Davidson diagonalization with overlap
     ethr =  5.56E-06,  avg # of iterations =  4.7

     total cpu time spent up to now is       11.8 secs

     total energy              =    -384.13351701 Ry
     Harris-Foulkes estimate   =    -384.14665553 Ry
     estimated scf accuracy    <       0.00173536 Ry

     iteration # 18     ecut=    40.00 Ry     beta= 0.70
     Davidson diagonalization with overlap
     ethr =  5.56E-06,  avg # of iterations =  4.8

     total cpu time spent up to now is       12.5 secs

     total energy              =    -384.15114350 Ry
     Harris-Foulkes estimate   =    -384.15088221 Ry
     estimated scf accuracy    <       0.00558898 Ry

     iteration # 19     ecut=    40.00 Ry     beta= 0.70
     Davidson diagonalization with overlap
     ethr =  5.56E-06,  avg # of iterations =  2.8

     total cpu time spent up to now is       13.2 secs

     total energy              =    -384.15700371 Ry
     Harris-Foulkes estimate   =    -384.15152525 Ry
     estimated scf accuracy    <       0.00479369 Ry

     iteration # 20     ecut=    40.00 Ry     beta= 0.70
     Davidson diagonalization with overlap
     ethr =  5.56E-06,  avg # of iterations =  4.3

     total cpu time spent up to now is       13.9 secs

     total energy              =    -384.13542575 Ry
     Harris-Foulkes estimate   =    -384.15833340 Ry
     estimated scf accuracy    <       0.00989692 Ry

     iteration # 21     ecut=    40.00 Ry     beta= 0.70
     Davidson diagonalization with overlap
     ethr =  5.56E-06,  avg # of iterations =  4.8

     total cpu time spent up to now is       14.7 secs

     total energy              =    -384.14297885 Ry
     Harris-Foulkes estimate   =    -384.14401737 Ry
     estimated scf accuracy    <       0.00152014 Ry

     iteration # 22     ecut=    40.00 Ry     beta= 0.70
     Davidson diagonalization with overlap
     ethr =  5.43E-06,  avg # of iterations =  3.1

     total cpu time spent up to now is       15.4 secs

     total energy              =    -384.14285382 Ry
     Harris-Foulkes estimate   =    -384.14353199 Ry
     estimated scf accuracy    <       0.00153322 Ry

     iteration # 23     ecut=    40.00 Ry     beta= 0.70
     Davidson diagonalization with overlap
     ethr =  5.43E-06,  avg # of iterations =  2.3

     total cpu time spent up to now is       15.9 secs

     total energy              =    -384.14258430 Ry
     Harris-Foulkes estimate   =    -384.14306540 Ry
     estimated scf accuracy    <       0.00124617 Ry

     iteration # 24     ecut=    40.00 Ry     beta= 0.70
     Davidson diagonalization with overlap
     ethr =  4.45E-06,  avg # of iterations =  2.0

     total cpu time spent up to now is       16.4 secs

     total energy              =    -384.14263590 Ry
     Harris-Foulkes estimate   =    -384.14265611 Ry
     estimated scf accuracy    <       0.00110646 Ry

     iteration # 25     ecut=    40.00 Ry     beta= 0.70
     Davidson diagonalization with overlap
     ethr =  3.95E-06,  avg # of iterations =  2.0

     total cpu time spent up to now is       17.0 secs

     total energy              =    -384.14052094 Ry
     Harris-Foulkes estimate   =    -384.14270721 Ry
     estimated scf accuracy    <       0.00104861 Ry

     iteration # 26     ecut=    40.00 Ry     beta= 0.70
     Davidson diagonalization with overlap
     ethr =  3.75E-06,  avg # of iterations =  2.9

     total cpu time spent up to now is       17.6 secs

     total energy              =    -384.14062377 Ry
     Harris-Foulkes estimate   =    -384.14101908 Ry
     estimated scf accuracy    <       0.00033025 Ry

     iteration # 27     ecut=    40.00 Ry     beta= 0.70
     Davidson diagonalization with overlap
     ethr =  1.18E-06,  avg # of iterations =  3.1

     total cpu time spent up to now is       18.2 secs

     total energy              =    -384.14006510 Ry
     Harris-Foulkes estimate   =    -384.14071522 Ry
     estimated scf accuracy    <       0.00027836 Ry

     iteration # 28     ecut=    40.00 Ry     beta= 0.70
     Davidson diagonalization with overlap
     ethr =  9.94E-07,  avg # of iterations =  3.3

     total cpu time spent up to now is       19.0 secs

     total energy              =    -384.13985706 Ry
     Harris-Foulkes estimate   =    -384.14023506 Ry
     estimated scf accuracy    <       0.00007532 Ry

     iteration # 29     ecut=    40.00 Ry     beta= 0.70
     Davidson diagonalization with overlap
     ethr =  2.69E-07,  avg # of iterations =  4.6

     total cpu time spent up to now is       19.7 secs

     total energy              =    -384.14002805 Ry
     Harris-Foulkes estimate   =    -384.14003781 Ry
     estimated scf accuracy    <       0.00000232 Ry

     iteration # 30     ecut=    40.00 Ry     beta= 0.70
     Davidson diagonalization with overlap
     ethr =  8.27E-09,  avg # of iterations =  4.8

     total cpu time spent up to now is       20.4 secs

     End of self-consistent calculation

          k = 0.0000 0.0000 0.0000 (  1067 PWs)   bands (ev):

   -19.7993 -19.7805 -19.7609 -18.8299 -16.7045 -16.6154 -11.5890  -2.1402
    -1.5012  -1.3828   5.8142   5.9837   6.2842  13.4248  16.6227  16.6364
    17.0167  17.3176

          k =-0.2500 0.2500-0.2500 (  1074 PWs)   bands (ev):

   -21.7832 -21.7604 -19.7200 -18.7277 -18.6469 -18.6348 -11.8717  -2.2882
    -1.9575  -1.5270   5.9016   6.4334   6.6014  14.7265  16.4105  16.5074
    16.5800  16.9728

          k = 0.5000-0.5000 0.5000 (  1068 PWs)   bands (ev):

   -21.5892 -20.1084 -20.1011 -18.4663 -16.8657 -16.8131 -12.1689  -2.4272
    -2.4064  -1.6281   5.9864   6.8983   6.9932  15.1612  16.3954  16.4761
    16.5847  17.0695

          k = 0.0000 0.5000 0.0000 (  1062 PWs)   bands (ev):

   -20.6454 -19.0314 -18.9983 -18.5282 -16.0009 -14.6804 -12.2020  -2.1752
    -1.9291  -1.4884   5.8216   6.4577   6.9074  14.9859  15.3906  16.8703
    16.8994  16.9068

          k = 0.7500-0.2500 0.7500 (  1076 PWs)   bands (ev):

   -23.2886 -21.8804 -21.1322 -19.4571 -18.3319 -17.5805 -12.4952  -2.7879
    -2.1221  -1.3426   6.0679   6.6224   7.3432  15.2082  15.6043  16.5648
    16.6842  16.8778

          k = 0.5000 0.0000 0.5000 (  1065 PWs)   bands (ev):

   -20.8032 -20.3001 -18.3831 -17.8418 -17.7552 -15.9286 -12.4524  -2.7274
    -1.8648  -1.3904   6.1940   6.4358   7.2747  15.3214  15.8333  16.4928
    16.7521  17.0596

          k = 0.0000-1.0000 0.0000 (  1090 PWs)   bands (ev):

   -26.8366 -26.8040 -21.3945 -21.2669 -19.6830 -18.1831 -12.8345  -2.3995
    -2.2961  -1.4483   5.8720   7.1978   7.3376  14.6164  15.1235  16.4870
    16.7905  16.8286

          k =-0.5000-1.0000 0.0000 (  1084 PWs)   bands (ev):

   -23.7240 -23.4862 -21.5580 -21.4975 -20.7488 -18.1825 -12.8317  -2.6027
    -2.4442  -1.0718   6.2038   7.0110   7.2153  14.9540  15.3693  16.5208
    16.6569  16.8495

          k =-0.2500 0.2500 0.2500 (  1074 PWs)   bands (ev):

   -21.7811 -21.7668 -19.7295 -18.6551 -18.6500 -18.5668 -12.1679  -2.1439
    -1.6278  -1.5252   6.0792   6.1591   6.7991  14.4899  16.3451  16.4852
    16.5273  17.0750

          k = 0.5000-0.5000-0.5000 (  1068 PWs)   bands (ev):

   -21.5913 -20.1293 -20.0932 -18.2828 -16.8623 -16.8235 -12.7601  -2.2571
    -1.7000  -1.6584   6.3014   6.8171   7.1033  14.8255  16.1331  16.3545
    16.5060  17.0702

          k = 0.5000 0.0000 0.0000 (  1062 PWs)   bands (ev):

   -20.6796 -19.0010 -18.9750 -18.5646 -16.0319 -14.6691 -12.0681  -2.5013
    -1.7947  -1.5772   5.8224   6.6207   6.9670  14.7308  15.6329  16.8832
    16.8976  16.8979

          k =-0.2500 0.7500-0.7500 (  1076 PWs)   bands (ev):

   -23.3005 -21.8628 -21.1216 -19.4638 -18.3681 -17.5950 -12.3654  -2.6331
    -2.4041  -1.5294   6.0339   7.0271   7.2845  15.1621  15.7327  16.5225
    16.7898  16.8017

          k = 0.2500-0.7500-0.7500 (  1076 PWs)   bands (ev):

   -23.3107 -21.8717 -21.1257 -19.4802 -18.2723 -17.5785 -12.6594  -2.9185
    -1.9199  -1.2207   6.0779   6.7836   7.5273  14.7648  15.5391  16.5520
    16.6147  16.9168

          k = 0.7500 0.2500 0.7500 (  1076 PWs)   bands (ev):

   -23.2896 -21.8861 -21.1522 -19.4598 -18.2338 -17.5710 -12.7912  -2.4902
    -2.1132  -1.2651   6.1411   6.9297   7.2431  15.0492  15.2717  16.5483
    16.7185  16.8945

          k = 0.0000 0.5000-0.5000 (  1065 PWs)   bands (ev):

   -20.7894 -20.2888 -18.4689 -17.8956 -17.7596 -15.9606 -12.1549  -2.5120
    -2.4308  -1.5120   6.0893   6.7435   6.9372  15.6552  16.2454  16.3885
    16.6962  17.0523

          k = 0.0000-0.5000-0.5000 (  1065 PWs)   bands (ev):

   -20.7797 -20.2937 -18.2972 -17.8642 -17.7593 -15.9220 -12.7437  -2.6214
    -1.6642  -1.2814   6.3478   6.6399   7.1513  14.8906  15.4877  16.4951
    16.8252  17.0877

          k =-1.0000 0.0000 0.0000 (  1090 PWs)   bands (ev):

   -26.8216 -26.8112 -21.4259 -21.2645 -19.7387 -18.2625 -12.5725  -2.8248
    -2.1574  -1.6791   5.9518   7.2433   7.6516  14.1417  15.6622  16.4645
    16.5745  16.7061

          k =-1.0000-0.5000 0.0000 (  1084 PWs)   bands (ev):

   -23.7433 -23.4740 -21.4923 -21.4865 -20.7759 -18.2226 -12.7020  -2.9269
    -2.2930  -1.1182   6.1454   6.8040   7.6054  14.9281  15.5879  16.4626
    16.5808  16.8431

     the Fermi energy is    15.3169 ev

!    total energy              =    -384.14004297 Ry
     Harris-Foulkes estimate   =    -384.14003453 Ry
     estimated scf accuracy    <       0.00000036 Ry

     The total energy is the sum of the following terms:

     one-electron contribution =    -202.65362428 Ry
     hartree contribution      =     121.65587605 Ry
     xc contribution           =     -55.49625890 Ry
     ewald contribution        =    -247.63753366 Ry
     smearing contrib. (-TS)   =      -0.00850219 Ry

     convergence has been achieved in  30 iterations

     Forces acting on atoms (cartesian axes, Ry/au):

     atom    1 type  1   force =    -0.04955794   -0.00000000    0.00000000
     atom    2 type  2   force =     0.04955794    0.00000000   -0.00000000

     Total force =     0.070086     Total SCF correction =     0.009208
     SCF correction compared to forces is large: reduce conv_thr to get better values

     BFGS Geometry Optimization

     number of scf cycles    =   1
     number of bfgs steps    =   0

     energy   new            =    -384.1400429714 Ry

     new trust radius        =       0.0495579366 bohr
     new conv_thr            =       0.0000010000 Ry


ATOMIC_POSITIONS (alat)
La      -0.004955794  -0.000000000   0.000000000
F        0.204955794   0.250000000   0.250000000



     Writing output data file CaF2.save/
     NEW-OLD atomic charge density approx. for the potential

     Check: negative core charge=   -0.000015

     total cpu time spent up to now is       20.5 secs

     Self-consistent Calculation

     iteration #  1     ecut=    40.00 Ry     beta= 0.70
     Davidson diagonalization with overlap
     c_bands:  1 eigenvalues not converged
     ethr =  1.00E-06,  avg # of iterations = 15.0

     negative rho (up, down):  3.530E+00 0.000E+00

     total cpu time spent up to now is       22.3 secs

     total energy              =    -387.37089601 Ry
     Harris-Foulkes estimate   =    -384.80568260 Ry
     estimated scf accuracy    <       2.95628854 Ry

     iteration #  2     ecut=    40.00 Ry     beta= 0.70
     Davidson diagonalization with overlap
     ethr =  1.00E-02,  avg # of iterations =  3.1

     negative rho (up, down):  4.714E-01 0.000E+00

     total cpu time spent up to now is       22.9 secs

     total energy              =    -351.92863294 Ry
     Harris-Foulkes estimate   =    -394.54960193 Ry
     estimated scf accuracy    <      34.16984195 Ry

     iteration #  3     ecut=    40.00 Ry     beta= 0.70
     Davidson diagonalization with overlap
     ethr =  1.00E-02,  avg # of iterations =  4.2

     negative rho (up, down):  7.672E-01 0.000E+00

     total cpu time spent up to now is       23.7 secs

     total energy              =    -394.25540225 Ry
     Harris-Foulkes estimate   =    -394.52323457 Ry
     estimated scf accuracy    <      26.70809966 Ry

     iteration #  4     ecut=    40.00 Ry     beta= 0.70
     Davidson diagonalization with overlap
     ethr =  1.00E-02,  avg # of iterations =  1.9

     negative rho (up, down):  7.986E-01 0.000E+00

     total cpu time spent up to now is       24.2 secs

     total energy              =    -374.05910147 Ry
     Harris-Foulkes estimate   =    -394.37921728 Ry
     estimated scf accuracy    <      24.60480000 Ry

     iteration #  5     ecut=    40.00 Ry     beta= 0.70
     Davidson diagonalization with overlap
     ethr =  1.00E-02,  avg # of iterations =  3.8

     negative rho (up, down):  2.561E-01 0.000E+00

     total cpu time spent up to now is       24.9 secs

     total energy              =    -386.15537680 Ry
     Harris-Foulkes estimate   =    -395.51193800 Ry
     estimated scf accuracy    <      28.82487007 Ry

     iteration #  6     ecut=    40.00 Ry     beta= 0.70
     Davidson diagonalization with overlap
     ethr =  1.00E-02,  avg # of iterations =  3.3

     negative rho (up, down):  5.459E-01 0.000E+00

     total cpu time spent up to now is       25.6 secs

     total energy              =    -394.99325130 Ry
     Harris-Foulkes estimate   =    -394.81385644 Ry
     estimated scf accuracy    <      48.45466051 Ry

     iteration #  7     ecut=    40.00 Ry     beta= 0.70
     Davidson diagonalization with overlap
     ethr =  1.00E-02,  avg # of iterations =  3.0

     negative rho (up, down):  7.805E-01 0.000E+00

     total cpu time spent up to now is       26.2 secs

     total energy              =    -393.56865754 Ry
     Harris-Foulkes estimate   =    -400.08022372 Ry
     estimated scf accuracy    <      90.81500925 Ry

     iteration #  8     ecut=    40.00 Ry     beta= 0.70
     Davidson diagonalization with overlap
     ethr =  1.00E-02,  avg # of iterations =  2.9

     negative rho (up, down):  4.502E-01 0.000E+00

     total cpu time spent up to now is       26.8 secs

     total energy              =    -393.02442115 Ry
     Harris-Foulkes estimate   =    -396.68578140 Ry
     estimated scf accuracy    <      53.10419567 Ry

     iteration #  9     ecut=    40.00 Ry     beta= 0.70
     Davidson diagonalization with overlap
     ethr =  1.00E-02,  avg # of iterations =  2.1

     negative rho (up, down):  1.167E+00 0.000E+00

     total cpu time spent up to now is       27.2 secs

     total energy              =    -354.17591080 Ry
     Harris-Foulkes estimate   =    -394.23362769 Ry
     estimated scf accuracy    <      31.25360937 Ry

     iteration # 10     ecut=    40.00 Ry     beta= 0.70
     Davidson diagonalization with overlap
     ethr =  1.00E-02,  avg # of iterations =  3.3

     negative rho (up, down):  1.556E+00 0.000E+00

     total cpu time spent up to now is       27.9 secs

     total energy              =    -391.61187126 Ry
     Harris-Foulkes estimate   =    -390.75042320 Ry
     estimated scf accuracy    <      16.97302760 Ry

     iteration # 11     ecut=    40.00 Ry     beta= 0.70
     Davidson diagonalization with overlap
     ethr =  1.00E-02,  avg # of iterations =  1.1

     negative rho (up, down):  6.769E-01 0.000E+00

     total cpu time spent up to now is       28.4 secs

     total energy              =    -388.07904098 Ry
     Harris-Foulkes estimate   =    -391.65765347 Ry
     estimated scf accuracy    <      17.37827881 Ry

     iteration # 12     ecut=    40.00 Ry     beta= 0.70
     Davidson diagonalization with overlap
     ethr =  1.00E-02,  avg # of iterations =  2.2

     negative rho (up, down):  3.959E-01 0.000E+00

     total cpu time spent up to now is       28.9 secs

     total energy              =    -386.52849410 Ry
     Harris-Foulkes estimate   =    -389.65257389 Ry
     estimated scf accuracy    <      26.36667809 Ry

     iteration # 13     ecut=    40.00 Ry     beta= 0.70
     Davidson diagonalization with overlap
     ethr =  1.00E-02,  avg # of iterations =  2.2

     negative rho (up, down):  1.242E-01 0.000E+00

     total cpu time spent up to now is       29.4 secs

     total energy              =    -386.64938029 Ry
     Harris-Foulkes estimate   =    -389.34011380 Ry
     estimated scf accuracy    <      17.17488628 Ry

     iteration # 14     ecut=    40.00 Ry     beta= 0.70
     Davidson diagonalization with overlap
     ethr =  1.00E-02,  avg # of iterations =  2.0

     negative rho (up, down):  9.887E-02 0.000E+00

     total cpu time spent up to now is       29.9 secs

     total energy              =    -386.31856480 Ry
     Harris-Foulkes estimate   =    -386.92706626 Ry
     estimated scf accuracy    <      11.16325528 Ry

     iteration # 15     ecut=    40.00 Ry     beta= 0.70
     Davidson diagonalization with overlap
     ethr =  1.00E-02,  avg # of iterations =  1.7

     negative rho (up, down):  2.463E-01 0.000E+00

     total cpu time spent up to now is       30.3 secs

     total energy              =    -388.21235015 Ry
     Harris-Foulkes estimate   =    -386.36218399 Ry
     estimated scf accuracy    <       8.37603894 Ry

     iteration # 16     ecut=    40.00 Ry     beta= 0.70
     Davidson diagonalization with overlap
     ethr =  1.00E-02,  avg # of iterations =  2.0

     negative rho (up, down):  2.443E-01 0.000E+00

     total cpu time spent up to now is       30.8 secs

     total energy              =    -388.27208793 Ry
     Harris-Foulkes estimate   =    -388.68005111 Ry
     estimated scf accuracy    <      16.37473400 Ry

     iteration # 17     ecut=    40.00 Ry     beta= 0.70
     Davidson diagonalization with overlap
     ethr =  1.00E-02,  avg # of iterations =  1.0

     negative rho (up, down):  2.314E-01 0.000E+00

     total cpu time spent up to now is       31.3 secs

     total energy              =    -385.70659246 Ry
     Harris-Foulkes estimate   =    -388.30897885 Ry
     estimated scf accuracy    <      15.38605728 Ry

     iteration # 18     ecut=    40.00 Ry     beta= 0.70
     Davidson diagonalization with overlap
     ethr =  1.00E-02,  avg # of iterations =  3.1

     negative rho (up, down):  2.724E-01 0.000E+00

     total cpu time spent up to now is       31.9 secs

     total energy              =    -368.37451218 Ry
     Harris-Foulkes estimate   =    -387.44453551 Ry
     estimated scf accuracy    <      16.42337031 Ry

     iteration # 19     ecut=    40.00 Ry     beta= 0.70
     Davidson diagonalization with overlap
     ethr =  1.00E-02,  avg # of iterations =  4.2

     negative rho (up, down):  4.300E-02 0.000E+00

     total cpu time spent up to now is       32.6 secs

     total energy              =    -384.90696759 Ry
     Harris-Foulkes estimate   =    -392.50244600 Ry
     estimated scf accuracy    <      23.59598248 Ry

     iteration # 20     ecut=    40.00 Ry     beta= 0.70
     Davidson diagonalization with overlap
     ethr =  1.00E-02,  avg # of iterations =  3.1

     negative rho (up, down):  2.696E-02 0.000E+00

     total cpu time spent up to now is       33.3 secs

     total energy              =    -382.10671166 Ry
     Harris-Foulkes estimate   =    -388.16056604 Ry
     estimated scf accuracy    <      27.94817000 Ry

     iteration # 21     ecut=    40.00 Ry     beta= 0.70
     Davidson diagonalization with overlap
     ethr =  1.00E-02,  avg # of iterations =  3.1

     negative rho (up, down):  2.858E-02 0.000E+00

     total cpu time spent up to now is       33.9 secs

     total energy              =    -384.61886314 Ry
     Harris-Foulkes estimate   =    -387.84236781 Ry
     estimated scf accuracy    <      17.24709491 Ry

     iteration # 22     ecut=    40.00 Ry     beta= 0.70
     Davidson diagonalization with overlap
     ethr =  1.00E-02,  avg # of iterations =  3.1

     negative rho (up, down):  1.149E-02 0.000E+00

     total cpu time spent up to now is       34.5 secs

     total energy              =    -382.68647268 Ry
     Harris-Foulkes estimate   =    -386.97908712 Ry
     estimated scf accuracy    <      14.47926364 Ry

     iteration # 23     ecut=    40.00 Ry     beta= 0.70
     Davidson diagonalization with overlap
     ethr =  1.00E-02,  avg # of iterations =  2.7

     negative rho (up, down):  7.668E-03 0.000E+00

     total cpu time spent up to now is       35.0 secs

     total energy              =    -385.06743181 Ry
     Harris-Foulkes estimate   =    -385.12533343 Ry
     estimated scf accuracy    <       1.71949161 Ry

     iteration # 24     ecut=    40.00 Ry     beta= 0.70
     Davidson diagonalization with overlap
     ethr =  6.14E-03,  avg # of iterations =  1.6

     negative rho (up, down):  1.447E-02 0.000E+00

     total cpu time spent up to now is       35.4 secs

     total energy              =    -384.77044581 Ry
     Harris-Foulkes estimate   =    -385.11509582 Ry
     estimated scf accuracy    <       2.71110396 Ry

     iteration # 25     ecut=    40.00 Ry     beta= 0.70
     Davidson diagonalization with overlap
     ethr =  6.14E-03,  avg # of iterations =  2.2

     negative rho (up, down):  1.696E-02 0.000E+00

     total cpu time spent up to now is       35.9 secs

     total energy              =    -385.25584108 Ry
     Harris-Foulkes estimate   =    -385.03094933 Ry
     estimated scf accuracy    <       1.31098680 Ry

     iteration # 26     ecut=    40.00 Ry     beta= 0.70
     Davidson diagonalization with overlap
     ethr =  4.68E-03,  avg # of iterations =  2.6

     negative rho (up, down):  3.397E-01 0.000E+00

     total cpu time spent up to now is       36.4 secs

     total energy              =    -384.27813207 Ry
     Harris-Foulkes estimate   =    -386.26248324 Ry
     estimated scf accuracy    <      10.21040517 Ry

     iteration # 27     ecut=    40.00 Ry     beta= 0.70
     Davidson diagonalization with overlap
     ethr =  4.68E-03,  avg # of iterations =  4.1

     negative rho (up, down):  7.622E-01 0.000E+00

     total cpu time spent up to now is       37.2 secs

     total energy              =    -390.80812513 Ry
     Harris-Foulkes estimate   =    -394.13348483 Ry
     estimated scf accuracy    <      52.35742202 Ry

     iteration # 28     ecut=    40.00 Ry     beta= 0.70
     Davidson diagonalization with overlap
     ethr =  4.68E-03,  avg # of iterations =  4.4

     negative rho (up, down):  7.347E-01 0.000E+00

     total cpu time spent up to now is       37.8 secs

     total energy              =    -394.15662388 Ry
     Harris-Foulkes estimate   =    -394.69086741 Ry
     estimated scf accuracy    <      26.51458417 Ry

     iteration # 29     ecut=    40.00 Ry     beta= 0.70
     Davidson diagonalization with overlap
     ethr =  4.68E-03,  avg # of iterations =  2.3

     negative rho (up, down):  1.371E+00 0.000E+00

     total cpu time spent up to now is       38.3 secs

     total energy              =    -393.87073714 Ry
     Harris-Foulkes estimate   =    -394.24372011 Ry
     estimated scf accuracy    <      25.08989559 Ry

     iteration # 30     ecut=    40.00 Ry     beta= 0.70
     Davidson diagonalization with overlap
     ethr =  4.68E-03,  avg # of iterations =  2.3

     negative rho (up, down):  1.588E+00 0.000E+00

     total cpu time spent up to now is       38.8 secs

     total energy              =    -394.74763540 Ry
     Harris-Foulkes estimate   =    -394.41377488 Ry
     estimated scf accuracy    <      23.93951646 Ry

     iteration # 31     ecut=    40.00 Ry     beta= 0.70
     Davidson diagonalization with overlap
     ethr =  4.68E-03,  avg # of iterations =  2.0

     negative rho (up, down):  3.481E-01 0.000E+00

     total cpu time spent up to now is       39.3 secs

     total energy              =    -390.15604948 Ry
     Harris-Foulkes estimate   =    -394.81468215 Ry
     estimated scf accuracy    <      23.12322703 Ry

     iteration # 32     ecut=    40.00 Ry     beta= 0.70
     Davidson diagonalization with overlap
     ethr =  4.68E-03,  avg # of iterations =  3.5

     negative rho (up, down):  7.891E-01 0.000E+00

     total cpu time spent up to now is       40.0 secs

     total energy              =    -386.66023691 Ry
     Harris-Foulkes estimate   =    -397.05851269 Ry
     estimated scf accuracy    <      84.80249897 Ry

     iteration # 33     ecut=    40.00 Ry     beta= 0.70
     Davidson diagonalization with overlap
     ethr =  4.68E-03,  avg # of iterations =  5.2

     negative rho (up, down):  6.789E-01 0.000E+00

     total cpu time spent up to now is       40.7 secs

     total energy              =    -394.73569615 Ry
     Harris-Foulkes estimate   =    -394.84253905 Ry
     estimated scf accuracy    <      25.26271271 Ry

     iteration # 34     ecut=    40.00 Ry     beta= 0.70
     Davidson diagonalization with overlap
     ethr =  4.68E-03,  avg # of iterations =  2.1

     negative rho (up, down):  7.930E-01 0.000E+00

     total cpu time spent up to now is       41.2 secs

     total energy              =    -393.76408940 Ry
     Harris-Foulkes estimate   =    -394.77793094 Ry
     estimated scf accuracy    <      26.47244742 Ry

     iteration # 35     ecut=    40.00 Ry     beta= 0.70
     Davidson diagonalization with overlap
     ethr =  4.68E-03,  avg # of iterations =  2.7

     negative rho (up, down):  2.414E+01 0.000E+00

     total cpu time spent up to now is       41.7 secs

     total energy              =    -374.78957633 Ry
     Harris-Foulkes estimate   =    -394.53096048 Ry
     estimated scf accuracy    <      25.39534777 Ry

     iteration # 36     ecut=    40.00 Ry     beta= 0.70
     Davidson diagonalization with overlap
     ethr =  4.68E-03,  avg # of iterations =  4.5

     negative rho (up, down):  6.847E+00 0.000E+00

     total cpu time spent up to now is       42.5 secs

     total energy              =    -377.06766759 Ry
     Harris-Foulkes estimate   =    -396.70158320 Ry
     estimated scf accuracy    <      33.31488757 Ry

     iteration # 37     ecut=    40.00 Ry     beta= 0.70
     Davidson diagonalization with overlap
     ethr =  4.68E-03,  avg # of iterations =  4.2

     negative rho (up, down):  1.153E+01 0.000E+00

     total cpu time spent up to now is       43.4 secs

     total energy              =    -386.12919624 Ry
     Harris-Foulkes estimate   =    -389.77240165 Ry
     estimated scf accuracy    <       8.17247817 Ry

     iteration # 38     ecut=    40.00 Ry     beta= 0.70
     Davidson diagonalization with overlap
     ethr =  4.68E-03,  avg # of iterations =  2.4

     negative rho (up, down):  1.064E+01 0.000E+00

     total cpu time spent up to now is       43.9 secs

     total energy              =    -387.21336898 Ry
     Harris-Foulkes estimate   =    -387.05285573 Ry
     estimated scf accuracy    <       0.33516647 Ry

     iteration # 39     ecut=    40.00 Ry     beta= 0.70
     Davidson diagonalization with overlap
     ethr =  1.20E-03,  avg # of iterations =  2.7

     negative rho (up, down):  1.264E+01 0.000E+00

     total cpu time spent up to now is       44.5 secs

     total energy              =    -386.26081969 Ry
     Harris-Foulkes estimate   =    -387.46234102 Ry
     estimated scf accuracy    <       1.73630475 Ry

     iteration # 40     ecut=    40.00 Ry     beta= 0.70
     Davidson diagonalization with overlap
     ethr =  1.20E-03,  avg # of iterations =  2.9

     negative rho (up, down):  1.209E+01 0.000E+00

     total cpu time spent up to now is       45.0 secs

     total energy              =    -386.74538820 Ry
     Harris-Foulkes estimate   =    -386.72797850 Ry
     estimated scf accuracy    <       1.26030977 Ry

     iteration # 41     ecut=    40.00 Ry     beta= 0.70
     Davidson diagonalization with overlap
     ethr =  1.20E-03,  avg # of iterations =  2.0

     negative rho (up, down):  1.081E+01 0.000E+00

     total cpu time spent up to now is       45.5 secs

     total energy              =    -387.18448050 Ry
     Harris-Foulkes estimate   =    -386.81173149 Ry
     estimated scf accuracy    <       0.26937940 Ry

     iteration # 42     ecut=    40.00 Ry     beta= 0.70
     Davidson diagonalization with overlap
     ethr =  9.62E-04,  avg # of iterations =  3.1

     negative rho (up, down):  1.217E+01 0.000E+00

     total cpu time spent up to now is       46.0 secs

     total energy              =    -386.58928986 Ry
     Harris-Foulkes estimate   =    -387.37543505 Ry
     estimated scf accuracy    <       1.22792412 Ry

     iteration # 43     ecut=    40.00 Ry     beta= 0.70
     Davidson diagonalization with overlap
     ethr =  9.62E-04,  avg # of iterations =  2.9

     negative rho (up, down):  1.158E+01 0.000E+00

     total cpu time spent up to now is       46.6 secs

     total energy              =    -387.02640729 Ry
     Harris-Foulkes estimate   =    -386.94136470 Ry
     estimated scf accuracy    <       0.48201383 Ry

     iteration # 44     ecut=    40.00 Ry     beta= 0.70
     Davidson diagonalization with overlap
     ethr =  9.62E-04,  avg # of iterations =  2.8

     negative rho (up, down):  1.156E+01 0.000E+00

     total cpu time spent up to now is       47.1 secs

     total energy              =    -387.10176245 Ry
     Harris-Foulkes estimate   =    -387.09563051 Ry
     estimated scf accuracy    <       0.01347771 Ry

     iteration # 45     ecut=    40.00 Ry     beta= 0.70
     Davidson diagonalization with overlap
     ethr =  4.81E-05,  avg # of iterations =  2.9

     negative rho (up, down):  1.142E+01 0.000E+00

     total cpu time spent up to now is       47.7 secs

     total energy              =    -387.14313328 Ry
     Harris-Foulkes estimate   =    -387.10709117 Ry
     estimated scf accuracy    <       0.01575365 Ry

     iteration # 46     ecut=    40.00 Ry     beta= 0.70
     Davidson diagonalization with overlap
     ethr =  4.81E-05,  avg # of iterations =  2.7

     negative rho (up, down):  1.147E+01 0.000E+00

     total cpu time spent up to now is       48.2 secs

     total energy              =    -387.13151769 Ry
     Harris-Foulkes estimate   =    -387.14808467 Ry
     estimated scf accuracy    <       0.01334362 Ry

     iteration # 47     ecut=    40.00 Ry     beta= 0.70
     Davidson diagonalization with overlap
     ethr =  4.77E-05,  avg # of iterations =  2.0

     negative rho (up, down):  1.140E+01 0.000E+00

     total cpu time spent up to now is       48.7 secs

     total energy              =    -387.15284293 Ry
     Harris-Foulkes estimate   =    -387.13243236 Ry
     estimated scf accuracy    <       0.00219635 Ry

     iteration # 48     ecut=    40.00 Ry     beta= 0.70
     Davidson diagonalization with overlap
     ethr =  7.84E-06,  avg # of iterations =  2.8

     negative rho (up, down):  1.173E+01 0.000E+00

     total cpu time spent up to now is       49.2 secs

     total energy              =    -387.04540421 Ry
     Harris-Foulkes estimate   =    -387.15364139 Ry
     estimated scf accuracy    <       0.00295927 Ry

     iteration # 49     ecut=    40.00 Ry     beta= 0.70
     Davidson diagonalization with overlap
     ethr =  7.84E-06,  avg # of iterations =  4.0

     negative rho (up, down):  1.195E+01 0.000E+00

     total cpu time spent up to now is       50.0 secs

     total energy              =    -386.99390841 Ry
     Harris-Foulkes estimate   =    -387.05473813 Ry
     estimated scf accuracy    <       0.01882999 Ry

     iteration # 50     ecut=    40.00 Ry     beta= 0.70
     Davidson diagonalization with overlap
     ethr =  7.84E-06,  avg # of iterations =  2.8

     negative rho (up, down):  1.146E+01 0.000E+00

     total cpu time spent up to now is       50.6 secs

     total energy              =    -387.12713379 Ry
     Harris-Foulkes estimate   =    -386.99478452 Ry
     estimated scf accuracy    <       0.04279402 Ry

     iteration # 51     ecut=    40.00 Ry     beta= 0.70
     Davidson diagonalization with overlap
     ethr =  7.84E-06,  avg # of iterations =  4.2

     negative rho (up, down):  1.099E+01 0.000E+00

     total cpu time spent up to now is       51.4 secs

     total energy              =    -387.25721043 Ry
     Harris-Foulkes estimate   =    -387.13752265 Ry
     estimated scf accuracy    <       0.01584091 Ry

     iteration # 52     ecut=    40.00 Ry     beta= 0.70
     Davidson diagonalization with overlap
     ethr =  7.84E-06,  avg # of iterations =  4.3

     negative rho (up, down):  1.090E+01 0.000E+00

     total cpu time spent up to now is       52.3 secs

     total energy              =    -387.30462073 Ry
     Harris-Foulkes estimate   =    -387.27762337 Ry
     estimated scf accuracy    <       0.01422892 Ry

     iteration # 53     ecut=    40.00 Ry     beta= 0.70
     Davidson diagonalization with overlap
     ethr =  7.84E-06,  avg # of iterations =  3.0

     negative rho (up, down):  1.090E+01 0.000E+00

     total cpu time spent up to now is       52.9 secs

     total energy              =    -387.30541076 Ry
     Harris-Foulkes estimate   =    -387.30612697 Ry
     estimated scf accuracy    <       0.02301027 Ry

     iteration # 54     ecut=    40.00 Ry     beta= 0.70
     Davidson diagonalization with overlap
     ethr =  7.84E-06,  avg # of iterations =  1.0

     negative rho (up, down):  1.086E+01 0.000E+00

     total cpu time spent up to now is       53.3 secs

     total energy              =    -387.31937119 Ry
     Harris-Foulkes estimate   =    -387.30541491 Ry
     estimated scf accuracy    <       0.02190116 Ry

     iteration # 55     ecut=    40.00 Ry     beta= 0.70
     Davidson diagonalization with overlap
     ethr =  7.84E-06,  avg # of iterations =  2.3

     negative rho (up, down):  1.091E+01 0.000E+00

     total cpu time spent up to now is       53.8 secs

     total energy              =    -387.30342628 Ry
     Harris-Foulkes estimate   =    -387.31967863 Ry
     estimated scf accuracy    <       0.03661216 Ry

     iteration # 56     ecut=    40.00 Ry     beta= 0.70
     Davidson diagonalization with overlap
     ethr =  7.84E-06,  avg # of iterations =  2.3

     negative rho (up, down):  1.088E+01 0.000E+00

     total cpu time spent up to now is       54.2 secs

     total energy              =    -387.31223634 Ry
     Harris-Foulkes estimate   =    -387.30378735 Ry
     estimated scf accuracy    <       0.02440769 Ry

     iteration # 57     ecut=    40.00 Ry     beta= 0.70
     Davidson diagonalization with overlap
     ethr =  7.84E-06,  avg # of iterations =  2.0

     negative rho (up, down):  1.068E+01 0.000E+00

     total cpu time spent up to now is       54.7 secs

     total energy              =    -387.37209480 Ry
     Harris-Foulkes estimate   =    -387.31238048 Ry
     estimated scf accuracy    <       0.02654259 Ry

     iteration # 58     ecut=    40.00 Ry     beta= 0.70
     Davidson diagonalization with overlap
     ethr =  7.84E-06,  avg # of iterations =  3.6

     negative rho (up, down):  1.070E+01 0.000E+00

     total cpu time spent up to now is       55.4 secs

     total energy              =    -387.37401727 Ry
     Harris-Foulkes estimate   =    -387.38052169 Ry
     estimated scf accuracy    <       0.14626780 Ry

     iteration # 59     ecut=    40.00 Ry     beta= 0.70
     Davidson diagonalization with overlap
     ethr =  7.84E-06,  avg # of iterations =  1.9

     negative rho (up, down):  1.098E+01 0.000E+00

     total cpu time spent up to now is       55.9 secs

     total energy              =    -387.26365609 Ry
     Harris-Foulkes estimate   =    -387.37411448 Ry
     estimated scf accuracy    <       0.12745925 Ry

     iteration # 60     ecut=    40.00 Ry     beta= 0.70
     Davidson diagonalization with overlap
     ethr =  7.84E-06,  avg # of iterations =  4.0

     negative rho (up, down):  1.087E+01 0.000E+00

     total cpu time spent up to now is       56.6 secs

     total energy              =    -387.31048731 Ry
     Harris-Foulkes estimate   =    -387.28654875 Ry
     estimated scf accuracy    <       0.02016393 Ry

     iteration # 61     ecut=    40.00 Ry     beta= 0.70
     Davidson diagonalization with overlap
     ethr =  7.84E-06,  avg # of iterations =  3.2

     negative rho (up, down):  1.091E+01 0.000E+00

     total cpu time spent up to now is       57.2 secs

     total energy              =    -387.30368265 Ry
     Harris-Foulkes estimate   =    -387.31444898 Ry
     estimated scf accuracy    <       0.00176703 Ry

     iteration # 62     ecut=    40.00 Ry     beta= 0.70
     Davidson diagonalization with overlap
     ethr =  6.31E-06,  avg # of iterations =  2.9

     negative rho (up, down):  1.090E+01 0.000E+00

     total cpu time spent up to now is       57.7 secs

     total energy              =    -387.30773469 Ry
     Harris-Foulkes estimate   =    -387.30435405 Ry
     estimated scf accuracy    <       0.00142016 Ry

     iteration # 63     ecut=    40.00 Ry     beta= 0.70
     Davidson diagonalization with overlap
     ethr =  5.07E-06,  avg # of iterations =  2.1

     negative rho (up, down):  1.090E+01 0.000E+00

     total cpu time spent up to now is       58.2 secs

     total energy              =    -387.30694567 Ry
     Harris-Foulkes estimate   =    -387.30787905 Ry
     estimated scf accuracy    <       0.00008249 Ry

     iteration # 64     ecut=    40.00 Ry     beta= 0.70
     Davidson diagonalization with overlap
     ethr =  2.95E-07,  avg # of iterations =  2.1

     negative rho (up, down):  1.090E+01 0.000E+00

     total cpu time spent up to now is       58.7 secs

     total energy              =    -387.30721304 Ry
     Harris-Foulkes estimate   =    -387.30695732 Ry
     estimated scf accuracy    <       0.00035127 Ry

     iteration # 65     ecut=    40.00 Ry     beta= 0.70
     Davidson diagonalization with overlap
     ethr =  2.95E-07,  avg # of iterations =  1.0

     negative rho (up, down):  1.089E+01 0.000E+00

     total cpu time spent up to now is       59.1 secs

     total energy              =    -387.30837666 Ry
     Harris-Foulkes estimate   =    -387.30721373 Ry
     estimated scf accuracy    <       0.00026782 Ry

     iteration # 66     ecut=    40.00 Ry     beta= 0.70
     Davidson diagonalization with overlap
     ethr =  2.95E-07,  avg # of iterations =  2.0

     negative rho (up, down):  1.089E+01 0.000E+00

     total cpu time spent up to now is       59.5 secs

     total energy              =    -387.30931507 Ry
     Harris-Foulkes estimate   =    -387.30838766 Ry
     estimated scf accuracy    <       0.00003124 Ry

     iteration # 67     ecut=    40.00 Ry     beta= 0.70
     Davidson diagonalization with overlap
     ethr =  1.12E-07,  avg # of iterations =  2.8

     negative rho (up, down):  1.089E+01 0.000E+00

     total cpu time spent up to now is       60.0 secs

     total energy              =    -387.30898642 Ry
     Harris-Foulkes estimate   =    -387.30932140 Ry
     estimated scf accuracy    <       0.00000405 Ry

     iteration # 68     ecut=    40.00 Ry     beta= 0.70
     Davidson diagonalization with overlap
     ethr =  1.44E-08,  avg # of iterations =  2.4

     negative rho (up, down):  1.089E+01 0.000E+00

     total cpu time spent up to now is       60.5 secs

     total energy              =    -387.30908834 Ry
     Harris-Foulkes estimate   =    -387.30898795 Ry
     estimated scf accuracy    <       0.00000370 Ry

     iteration # 69     ecut=    40.00 Ry     beta= 0.70
     Davidson diagonalization with overlap
     ethr =  1.32E-08,  avg # of iterations =  1.7

     negative rho (up, down):  1.089E+01 0.000E+00

     total cpu time spent up to now is       61.0 secs

     total energy              =    -387.30919946 Ry
     Harris-Foulkes estimate   =    -387.30908844 Ry
     estimated scf accuracy    <       0.00000119 Ry

     iteration # 70     ecut=    40.00 Ry     beta= 0.70
     Davidson diagonalization with overlap
     ethr =  4.25E-09,  avg # of iterations =  2.4

     negative rho (up, down):  1.089E+01 0.000E+00

     total cpu time spent up to now is       61.4 secs

     End of self-consistent calculation

          k = 0.0000 0.0000 0.0000 (  1067 PWs)   bands (ev):

   -20.5278 -16.6397 -15.2982 -15.2862 -14.7019 -14.2606 -13.4059  -4.3791
    -3.5719  -2.7633   1.6796   1.7211   2.3979   4.7334   5.5339  13.0275
    13.3270  13.5324

          k =-0.2500 0.2500-0.2500 (  1074 PWs)   bands (ev):

   -20.2230 -18.9085 -18.4156 -16.1013 -15.1033 -14.7714 -14.2558  -4.8965
    -3.8434  -3.6355   1.7346   2.2754   2.8548   4.7572   7.6037  11.5438
    11.7576  14.2862

          k = 0.5000-0.5000 0.5000 (  1068 PWs)   bands (ev):

   -19.8595 -17.7178 -17.1710 -16.6766 -15.5832 -13.3906 -12.5437  -5.5689
    -4.0753  -4.0465   1.6943   3.1603   3.2221   5.1190   8.9027  10.4974
    11.5347  15.3321

          k = 0.0000 0.5000 0.0000 (  1062 PWs)   bands (ev):

   -20.0313 -17.5468 -15.8343 -15.4703 -14.5204 -12.2006 -11.5525  -5.1588
    -3.8061  -3.3927   1.3465   2.6823   3.0441   5.0079   8.1657   9.6322
    14.3872  14.5127

          k = 0.7500-0.2500 0.7500 (  1076 PWs)   bands (ev):

   -19.7966 -19.5850 -18.5867 -17.6067 -15.9714 -15.1452 -14.0786  -5.8436
    -4.4474  -3.3698   1.8792   2.7466   3.3322   5.0859   9.0521   9.7168
    13.8121  14.8705

          k = 0.5000 0.0000 0.5000 (  1065 PWs)   bands (ev):

   -19.7287 -17.4795 -17.1103 -15.8835 -14.1054 -13.7726 -12.1641  -5.7519
    -4.0731  -3.3620   2.2006   2.4407   3.1269   5.0869   8.8667  10.0881
    13.1897  13.9811

          k = 0.0000-1.0000 0.0000 (  1090 PWs)   bands (ev):

   -23.5639 -22.2819 -19.3398 -18.5445 -18.1176 -16.4483 -15.1483  -5.7148
    -4.3997  -3.6322   1.0427   3.5161   3.9636   4.9583   8.7607   9.1627
    15.2104  15.6797

          k =-0.5000-1.0000 0.0000 (  1084 PWs)   bands (ev):

   -20.5584 -20.5119 -19.3176 -17.5063 -17.1412 -17.0134 -16.2631  -5.8728
    -5.0186  -2.7618   1.9475   3.0442   3.5008   4.9853   8.3180   9.5919
    14.6773  14.7525

          k =-0.2500 0.2500 0.2500 (  1074 PWs)   bands (ev):

   -20.1183 -18.9272 -18.4198 -16.0717 -15.3998 -14.6969 -14.2741  -5.0563
    -3.6841  -3.0712   2.0169   2.0975   2.6159   4.7684   7.4486  11.4603
    12.0611  13.6806

          k = 0.5000-0.5000-0.5000 (  1068 PWs)   bands (ev):

   -19.5657 -17.7413 -17.2200 -16.6722 -16.1614 -13.3651 -12.5600  -5.5710
    -3.9528  -3.3273   2.2444   2.5048   3.5550   5.1667   8.4521   9.9285
    12.3405  13.6591

          k = 0.5000 0.0000 0.0000 (  1062 PWs)   bands (ev):

   -20.0582 -17.9129 -15.4067 -14.5338 -14.5045 -12.8673 -11.4780  -4.7689
    -4.2666  -3.6330   0.9874   2.7837   3.4376   4.6733   8.0005  11.5303
    14.4064  14.6395

          k =-0.2500 0.7500-0.7500 (  1076 PWs)   bands (ev):

   -19.6716 -19.4915 -18.2635 -16.9578 -16.1653 -15.7669 -14.5178  -5.4528
    -4.4865  -4.1019   1.2944   3.1743   3.8583   5.1363   8.9864  11.5286
    12.6603  14.6403

          k = 0.2500-0.7500-0.7500 (  1076 PWs)   bands (ev):

   -19.5295 -19.4848 -18.2671 -16.9758 -16.3560 -15.9019 -14.4810  -5.9245
    -3.8563  -3.6571   1.4826   3.0391   3.3842   5.2836   8.7794  11.0435
    13.5380  14.3573

          k = 0.7500 0.2500 0.7500 (  1076 PWs)   bands (ev):

   -19.7854 -19.4514 -18.5879 -17.6075 -16.3518 -15.0696 -14.0825  -5.7711
    -4.3411  -3.1732   1.7698   3.0534   3.5141   5.0531   8.8737   9.2833
    13.4848  14.4475

          k = 0.0000 0.5000-0.5000 (  1065 PWs)   bands (ev):

   -19.8611 -17.0414 -16.2955 -15.5995 -14.9390 -13.3208 -13.2945  -5.4779
    -4.1710  -4.1026   1.8520   2.6765   3.3512   5.1953   9.2806  11.0879
    11.9958  13.8119

          k = 0.0000-0.5000-0.5000 (  1065 PWs)   bands (ev):

   -19.5750 -17.0443 -16.2963 -16.2151 -15.0098 -13.2901 -13.1714  -5.8204
    -3.5911  -3.3572   2.3655   2.7190   2.8963   5.1928   8.8151  10.0248
    11.8104  14.1783

          k =-1.0000 0.0000 0.0000 (  1090 PWs)   bands (ev):

   -22.3066 -22.2840 -19.4222 -18.5671 -18.0294 -16.6996 -16.1055  -5.1046
    -4.8379  -4.2841   0.4023   3.7234   4.4113   5.1949   8.3736  12.0430
    14.8951  16.0227

          k =-1.0000-0.5000 0.0000 (  1084 PWs)   bands (ev):

   -20.3181 -19.3750 -19.2344 -18.3107 -17.8936 -17.0415 -16.2404  -5.9945
    -4.6157  -3.3428   1.9075   2.7250   3.4906   5.2956   9.0549  10.5016
    13.8564  15.0802

     the Fermi energy is     5.6035 ev

!    total energy              =    -387.30921643 Ry
     Harris-Foulkes estimate   =    -387.30919961 Ry
     estimated scf accuracy    <       0.00000002 Ry

     The total energy is the sum of the following terms:

     one-electron contribution =    -200.71855053 Ry
     hartree contribution      =     128.75492734 Ry
     xc contribution           =     -67.49793000 Ry
     ewald contribution        =    -247.84684576 Ry
     smearing contrib. (-TS)   =      -0.00081748 Ry

     convergence has been achieved in  70 iterations

     negative rho (up, down):  1.089E+01 0.000E+00

     Forces acting on atoms (cartesian axes, Ry/au):

     atom    1 type  1   force =     0.05467569   -0.00000000    0.00000000
     atom    2 type  2   force =    -0.05467569    0.00000000   -0.00000000

     Total force =     0.077323     Total SCF correction =     0.000869

     number of scf cycles    =   2
     number of bfgs steps    =   1

     energy   old            =    -384.1400429714 Ry
     energy   new            =    -387.3092164312 Ry

     CASE: energy  _new < energy  _old

     new trust radius        =       0.0259955887 bohr
     new conv_thr            =       0.0000005468 Ry


ATOMIC_POSITIONS (alat)
La      -0.002356235  -0.000000000   0.000000000
F        0.202356235   0.250000000   0.250000000



     Writing output data file CaF2.save/
     NEW-OLD atomic charge density approx. for the potential

     Check: negative core charge=   -0.000015

     negative rho (up, down):  1.089E+01 0.000E+00

     total cpu time spent up to now is       61.6 secs

     Self-consistent Calculation

     iteration #  1     ecut=    40.00 Ry     beta= 0.70
     Davidson diagonalization with overlap
     ethr =  1.00E-06,  avg # of iterations =  5.9

     negative rho (up, down):  8.994E+00 0.000E+00

     total cpu time spent up to now is       62.7 secs

     total energy              =    -387.55399535 Ry
     Harris-Foulkes estimate   =    -387.12489826 Ry
     estimated scf accuracy    <       0.42857404 Ry

     iteration #  2     ecut=    40.00 Ry     beta= 0.70
     Davidson diagonalization with overlap
     ethr =  1.53E-03,  avg # of iterations =  3.0

     negative rho (up, down):  1.045E+01 0.000E+00

     total cpu time spent up to now is       63.3 secs

     total energy              =    -387.22631570 Ry
     Harris-Foulkes estimate   =    -388.57009990 Ry
     estimated scf accuracy    <       4.67546247 Ry

     iteration #  3     ecut=    40.00 Ry     beta= 0.70
     Davidson diagonalization with overlap
     ethr =  1.53E-03,  avg # of iterations =  2.4

     negative rho (up, down):  1.124E+01 0.000E+00

     total cpu time spent up to now is       63.8 secs

     total energy              =    -387.13722055 Ry
     Harris-Foulkes estimate   =    -387.48865972 Ry
     estimated scf accuracy    <       0.56909993 Ry

     iteration #  4     ecut=    40.00 Ry     beta= 0.70
     Davidson diagonalization with overlap
     ethr =  1.53E-03,  avg # of iterations =  2.1

     negative rho (up, down):  1.125E+01 0.000E+00

     total cpu time spent up to now is       64.3 secs

     total energy              =    -387.21274154 Ry
     Harris-Foulkes estimate   =    -387.25494301 Ry
     estimated scf accuracy    <       0.14909709 Ry

     iteration #  5     ecut=    40.00 Ry     beta= 0.70
     Davidson diagonalization with overlap
     ethr =  5.32E-04,  avg # of iterations =  2.0

     negative rho (up, down):  1.118E+01 0.000E+00

     total cpu time spent up to now is       64.7 secs

     total energy              =    -387.23784459 Ry
     Harris-Foulkes estimate   =    -387.22658749 Ry
     estimated scf accuracy    <       0.02326338 Ry

     iteration #  6     ecut=    40.00 Ry     beta= 0.70
     Davidson diagonalization with overlap
     ethr =  8.31E-05,  avg # of iterations =  2.0

     negative rho (up, down):  1.117E+01 0.000E+00

     total cpu time spent up to now is       65.2 secs

     total energy              =    -387.24476866 Ry
     Harris-Foulkes estimate   =    -387.24142127 Ry
     estimated scf accuracy    <       0.00031888 Ry

     iteration #  7     ecut=    40.00 Ry     beta= 0.70
     Davidson diagonalization with overlap
     ethr =  1.14E-06,  avg # of iterations =  3.6

     negative rho (up, down):  1.118E+01 0.000E+00

     total cpu time spent up to now is       65.9 secs

     total energy              =    -387.24186947 Ry
     Harris-Foulkes estimate   =    -387.24489985 Ry
     estimated scf accuracy    <       0.00039717 Ry

     iteration #  8     ecut=    40.00 Ry     beta= 0.70
     Davidson diagonalization with overlap
     ethr =  1.14E-06,  avg # of iterations =  2.0

     negative rho (up, down):  1.118E+01 0.000E+00

     total cpu time spent up to now is       66.4 secs

     total energy              =    -387.24348178 Ry
     Harris-Foulkes estimate   =    -387.24197741 Ry
     estimated scf accuracy    <       0.00009966 Ry

     iteration #  9     ecut=    40.00 Ry     beta= 0.70
     Davidson diagonalization with overlap
     ethr =  3.56E-07,  avg # of iterations =  2.0

     negative rho (up, down):  1.118E+01 0.000E+00

     total cpu time spent up to now is       66.9 secs

     total energy              =    -387.24267070 Ry
     Harris-Foulkes estimate   =    -387.24350215 Ry
     estimated scf accuracy    <       0.00001158 Ry

     iteration # 10     ecut=    40.00 Ry     beta= 0.70
     Davidson diagonalization with overlap
     ethr =  4.14E-08,  avg # of iterations =  2.7

     negative rho (up, down):  1.118E+01 0.000E+00

     total cpu time spent up to now is       67.4 secs

     total energy              =    -387.24323382 Ry
     Harris-Foulkes estimate   =    -387.24267764 Ry
     estimated scf accuracy    <       0.00002333 Ry

     iteration # 11     ecut=    40.00 Ry     beta= 0.70
     Davidson diagonalization with overlap
     ethr =  4.14E-08,  avg # of iterations =  2.0

     negative rho (up, down):  1.118E+01 0.000E+00

     total cpu time spent up to now is       67.9 secs

     End of self-consistent calculation

          k = 0.0000 0.0000 0.0000 (  1067 PWs)   bands (ev):

   -20.5382 -16.5512 -15.0220 -14.9833 -14.7123 -13.9511 -13.2711  -4.4728
    -3.6768  -2.7200   1.6038   1.6419   2.4592   4.3381   5.4857  12.8460
    13.4183  13.4712

          k =-0.2500 0.2500-0.2500 (  1074 PWs)   bands (ev):

   -20.2407 -18.5980 -18.2692 -15.9721 -15.0896 -14.4834 -13.9969  -5.0016
    -3.9427  -3.6309   1.6008   2.2223   2.9178   4.4204   7.5522  11.4207
    11.7500  14.2015

          k = 0.5000-0.5000 0.5000 (  1068 PWs)   bands (ev):

   -19.8797 -17.5318 -16.8367 -16.5263 -15.5486 -13.1761 -12.2976  -5.6833
    -4.1715  -4.0539   1.5182   3.0802   3.2900   4.8208   8.8406  10.4860
    11.4962  15.2970

          k = 0.0000 0.5000 0.0000 (  1062 PWs)   bands (ev):

   -20.0262 -17.3572 -15.7495 -15.4939 -14.2293 -11.9233 -11.2645  -5.2592
    -3.8038  -3.3945   1.2873   2.5826   2.9921   4.6573   8.1125   9.5973
    14.2788  14.4185

          k = 0.7500-0.2500 0.7500 (  1076 PWs)   bands (ev):

   -19.6357 -19.5850 -18.3170 -17.3839 -15.9839 -14.8614 -13.8709  -5.9461
    -4.4594  -3.3866   1.8054   2.5850   3.2522   4.8411   8.9790   9.7404
    13.7587  14.7974

          k = 0.5000 0.0000 0.5000 (  1065 PWs)   bands (ev):

   -19.7278 -17.1893 -16.9603 -15.9130 -13.9013 -13.5411 -11.9046  -5.8534
    -4.0731  -3.3732   2.0697   2.3759   3.0320   4.8362   8.8434  10.0335
    13.1243  13.8913

          k = 0.0000-1.0000 0.0000 (  1090 PWs)   bands (ev):

   -23.4621 -21.9711 -19.3036 -18.2404 -17.9553 -16.5175 -14.8768  -5.8056
    -4.3953  -3.6035   0.9548   3.3915   3.9300   4.5895   8.6676   9.1531
    15.1693  15.6262

          k =-0.5000-1.0000 0.0000 (  1084 PWs)   bands (ev):

   -20.4140 -20.2478 -19.2690 -17.3653 -16.9663 -16.6950 -16.2727  -5.9641
    -5.0093  -2.7356   1.8596   2.9128   3.4686   4.6068   8.2634   9.5750
    14.5987  14.7282

          k =-0.2500 0.2500 0.2500 (  1074 PWs)   bands (ev):

   -20.1216 -18.6061 -18.2702 -15.9600 -15.4293 -14.4602 -13.9618  -5.1592
    -3.6889  -3.0281   1.9227   2.0078   2.5684   4.4229   7.4236  11.4470
    11.9729  13.5796

          k = 0.5000-0.5000-0.5000 (  1068 PWs)   bands (ev):

   -19.5288 -17.5711 -16.8956 -16.5152 -16.2614 -13.1818 -12.2572  -5.6569
    -3.9240  -3.2842   2.1300   2.4110   3.5129   4.8125   8.3774   9.9072
    12.3114  13.5076

          k = 0.5000 0.0000 0.0000 (  1062 PWs)   bands (ev):

   -20.0804 -17.5933 -15.4040 -14.2444 -14.2136 -12.7799 -11.3445  -4.8939
    -4.3560  -3.6075   0.8787   2.7109   3.4911   4.3871   7.9612  11.3750
    14.4628  14.5117

          k =-0.2500 0.7500-0.7500 (  1076 PWs)   bands (ev):

   -19.6882 -19.2018 -18.1125 -16.7017 -16.0725 -15.7174 -14.1959  -5.5318
    -4.5728  -4.1649   1.1536   3.0929   3.9182   4.8882   9.0089  11.3555
    12.6205  14.5503

          k = 0.2500-0.7500-0.7500 (  1076 PWs)   bands (ev):

   -19.5473 -19.1919 -18.1105 -16.6628 -16.3675 -15.8244 -14.1886  -6.0430
    -3.8293  -3.6607   1.3422   2.9448   3.2861   5.1169   8.7241  10.8995
    13.5210  14.3313

          k = 0.7500 0.2500 0.7500 (  1076 PWs)   bands (ev):

   -19.6207 -19.4106 -18.3102 -17.3813 -16.4284 -14.8415 -13.8511  -5.8529
    -4.3248  -3.1471   1.6808   2.9354   3.4719   4.7041   8.7972   9.2466
    13.4130  14.3509

          k = 0.0000 0.5000-0.5000 (  1065 PWs)   bands (ev):

   -19.8813 -16.9007 -16.0320 -15.5902 -14.7131 -13.1043 -12.9714  -5.5348
    -4.2606  -4.1967   1.7195   2.5781   3.4190   4.9057   9.3306  11.0584
    11.7846  13.8200

          k = 0.0000-0.5000-0.5000 (  1065 PWs)   bands (ev):

   -19.5360 -16.9065 -16.3144 -15.9711 -14.7908 -13.0557 -12.9457  -5.9067
    -3.5542  -3.3148   2.2535   2.7055   2.7759   4.8474   8.6803  10.0005
    11.7698  14.0218

          k =-1.0000 0.0000 0.0000 (  1090 PWs)   bands (ev):

   -22.0224 -21.9847 -19.4664 -18.2138 -17.8876 -16.6378 -16.0757  -5.2529
    -4.9175  -4.2665   0.2718   3.6429   4.4647   4.9759   8.2955  11.8862
    14.9011  16.1010

          k =-1.0000-0.5000 0.0000 (  1084 PWs)   bands (ev):

   -20.1270 -19.3626 -18.9401 -18.2099 -17.6235 -16.7663 -16.2416  -6.1034
    -4.6101  -3.3658   1.7623   2.6080   3.4082   5.1374   9.0675  10.3758
    13.7488  15.0658

     the Fermi energy is     5.4476 ev

!    total energy              =    -387.24231347 Ry
     Harris-Foulkes estimate   =    -387.24323666 Ry
     estimated scf accuracy    <       0.00000037 Ry

     The total energy is the sum of the following terms:

     one-electron contribution =    -200.80550054 Ry
     hartree contribution      =     129.14847813 Ry
     xc contribution           =     -67.84248992 Ry
     ewald contribution        =    -247.74222322 Ry
     smearing contrib. (-TS)   =      -0.00057790 Ry

     convergence has been achieved in  11 iterations

     negative rho (up, down):  1.118E+01 0.000E+00

     Forces acting on atoms (cartesian axes, Ry/au):

     atom    1 type  1   force =     0.37480943    0.00000000   -0.00000000
     atom    2 type  2   force =    -0.37480943    0.00000000   -0.00000000

     Total force =     0.530061     Total SCF correction =     0.003511

     number of scf cycles    =   3
     number of bfgs steps    =   2

     energy   old            =    -387.3092164312 Ry
     energy   new            =    -387.2423134655 Ry

     CASE: energy  _new > energy  _old

     new trust radius        =       0.0005297570 bohr
     new conv_thr            =       0.0000005468 Ry


ATOMIC_POSITIONS (alat)
La      -0.004902818   0.000000000   0.000000000
F        0.204902818   0.250000000   0.250000000



     Writing output data file CaF2.save/
     NEW-OLD atomic charge density approx. for the potential

     Check: negative core charge=   -0.000015

     negative rho (up, down):  1.117E+01 0.000E+00

     total cpu time spent up to now is       68.0 secs

     Self-consistent Calculation

     iteration #  1     ecut=    40.00 Ry     beta= 0.70
     Davidson diagonalization with overlap
     ethr =  1.00E-06,  avg # of iterations =  7.3

     negative rho (up, down):  6.598E+00 0.000E+00

     total cpu time spent up to now is       69.2 secs

     total energy              =    -386.99386133 Ry
     Harris-Foulkes estimate   =    -387.08273849 Ry
     estimated scf accuracy    <       1.41765047 Ry

     iteration #  2     ecut=    40.00 Ry     beta= 0.70
     Davidson diagonalization with overlap
     ethr =  5.06E-03,  avg # of iterations =  3.0

     negative rho (up, down):  1.010E+01 0.000E+00

     total cpu time spent up to now is       69.8 secs

     total energy              =    -387.27650472 Ry
     Harris-Foulkes estimate   =    -392.06965143 Ry
     estimated scf accuracy    <      13.30968392 Ry

     iteration #  3     ecut=    40.00 Ry     beta= 0.70
     Davidson diagonalization with overlap
     ethr =  5.06E-03,  avg # of iterations =  2.0

     negative rho (up, down):  1.215E+01 0.000E+00

     total cpu time spent up to now is       70.4 secs

     total energy              =    -386.07654959 Ry
     Harris-Foulkes estimate   =    -388.00210511 Ry
     estimated scf accuracy    <       2.72327499 Ry

     iteration #  4     ecut=    40.00 Ry     beta= 0.70
     Davidson diagonalization with overlap
     ethr =  5.06E-03,  avg # of iterations =  2.4

     negative rho (up, down):  1.197E+01 0.000E+00

     total cpu time spent up to now is       70.9 secs

     total energy              =    -387.29124202 Ry
     Harris-Foulkes estimate   =    -387.47154538 Ry
     estimated scf accuracy    <       4.69509919 Ry

     iteration #  5     ecut=    40.00 Ry     beta= 0.70
     Davidson diagonalization with overlap
     ethr =  5.06E-03,  avg # of iterations =  1.0

     negative rho (up, down):  1.112E+01 0.000E+00

     total cpu time spent up to now is       71.3 secs

     total energy              =    -387.08087417 Ry
     Harris-Foulkes estimate   =    -387.32351307 Ry
     estimated scf accuracy    <       3.30536403 Ry

     iteration #  6     ecut=    40.00 Ry     beta= 0.70
     Davidson diagonalization with overlap
     ethr =  5.06E-03,  avg # of iterations =  2.2

     negative rho (up, down):  1.113E+01 0.000E+00

     total cpu time spent up to now is       71.8 secs

     total energy              =    -387.26533735 Ry
     Harris-Foulkes estimate   =    -387.26711760 Ry
     estimated scf accuracy    <       0.12686360 Ry

     iteration #  7     ecut=    40.00 Ry     beta= 0.70
     Davidson diagonalization with overlap
     ethr =  4.53E-04,  avg # of iterations =  1.1

     negative rho (up, down):  1.113E+01 0.000E+00

     total cpu time spent up to now is       72.2 secs

     total energy              =    -387.26645019 Ry
     Harris-Foulkes estimate   =    -387.26629036 Ry
     estimated scf accuracy    <       0.14216426 Ry

     iteration #  8     ecut=    40.00 Ry     beta= 0.70
     Davidson diagonalization with overlap
     ethr =  4.53E-04,  avg # of iterations =  1.0

     negative rho (up, down):  1.110E+01 0.000E+00

     total cpu time spent up to now is       72.6 secs

     total energy              =    -387.27080624 Ry
     Harris-Foulkes estimate   =    -387.26660634 Ry
     estimated scf accuracy    <       0.14096152 Ry

     iteration #  9     ecut=    40.00 Ry     beta= 0.70
     Davidson diagonalization with overlap
     ethr =  4.53E-04,  avg # of iterations =  1.0

     negative rho (up, down):  1.100E+01 0.000E+00

     total cpu time spent up to now is       73.1 secs

     total energy              =    -387.28527446 Ry
     Harris-Foulkes estimate   =    -387.27104101 Ry
     estimated scf accuracy    <       0.11386933 Ry

     iteration # 10     ecut=    40.00 Ry     beta= 0.70
     Davidson diagonalization with overlap
     ethr =  4.07E-04,  avg # of iterations =  1.8

     negative rho (up, down):  1.083E+01 0.000E+00

     total cpu time spent up to now is       73.5 secs

     total energy              =    -387.32112595 Ry
     Harris-Foulkes estimate   =    -387.28774954 Ry
     estimated scf accuracy    <       0.04114055 Ry

     iteration # 11     ecut=    40.00 Ry     beta= 0.70
     Davidson diagonalization with overlap
     ethr =  1.47E-04,  avg # of iterations =  2.3

     negative rho (up, down):  1.088E+01 0.000E+00

     total cpu time spent up to now is       74.0 secs

     total energy              =    -387.31549245 Ry
     Harris-Foulkes estimate   =    -387.32881593 Ry
     estimated scf accuracy    <       0.00711251 Ry

     iteration # 12     ecut=    40.00 Ry     beta= 0.70
     Davidson diagonalization with overlap
     ethr =  2.54E-05,  avg # of iterations =  2.1

     negative rho (up, down):  1.090E+01 0.000E+00

     total cpu time spent up to now is       74.5 secs

     total energy              =    -387.30881150 Ry
     Harris-Foulkes estimate   =    -387.31615893 Ry
     estimated scf accuracy    <       0.00028029 Ry

     iteration # 13     ecut=    40.00 Ry     beta= 0.70
     Davidson diagonalization with overlap
     ethr =  1.00E-06,  avg # of iterations =  3.7

     negative rho (up, down):  1.089E+01 0.000E+00

     total cpu time spent up to now is       75.1 secs

     total energy              =    -387.31131205 Ry
     Harris-Foulkes estimate   =    -387.30901262 Ry
     estimated scf accuracy    <       0.00054545 Ry

     iteration # 14     ecut=    40.00 Ry     beta= 0.70
     Davidson diagonalization with overlap
     ethr =  1.00E-06,  avg # of iterations =  2.0

     negative rho (up, down):  1.089E+01 0.000E+00

     total cpu time spent up to now is       75.6 secs

     total energy              =    -387.31366445 Ry
     Harris-Foulkes estimate   =    -387.31133112 Ry
     estimated scf accuracy    <       0.00013580 Ry

     iteration # 15     ecut=    40.00 Ry     beta= 0.70
     Davidson diagonalization with overlap
     ethr =  4.85E-07,  avg # of iterations =  2.0

     negative rho (up, down):  1.088E+01 0.000E+00

     total cpu time spent up to now is       76.0 secs

     total energy              =    -387.31384383 Ry
     Harris-Foulkes estimate   =    -387.31368220 Ry
     estimated scf accuracy    <       0.00000083 Ry

     iteration # 16     ecut=    40.00 Ry     beta= 0.70
     Davidson diagonalization with overlap
     ethr =  2.96E-09,  avg # of iterations =  3.0

     negative rho (up, down):  1.089E+01 0.000E+00

     total cpu time spent up to now is       76.6 secs

     total energy              =    -387.31381153 Ry
     Harris-Foulkes estimate   =    -387.31384417 Ry
     estimated scf accuracy    <       0.00000144 Ry

     iteration # 17     ecut=    40.00 Ry     beta= 0.70
     Davidson diagonalization with overlap
     ethr =  2.96E-09,  avg # of iterations =  1.0

     negative rho (up, down):  1.089E+01 0.000E+00

     total cpu time spent up to now is       77.1 secs

     total energy              =    -387.31367293 Ry
     Harris-Foulkes estimate   =    -387.31381155 Ry
     estimated scf accuracy    <       0.00000096 Ry

     iteration # 18     ecut=    40.00 Ry     beta= 0.70
     Davidson diagonalization with overlap
     ethr =  2.96E-09,  avg # of iterations =  2.0

     negative rho (up, down):  1.089E+01 0.000E+00

     total cpu time spent up to now is       77.5 secs

     End of self-consistent calculation

          k = 0.0000 0.0000 0.0000 (  1067 PWs)   bands (ev):

   -20.5345 -16.6512 -15.3063 -15.2999 -14.7065 -14.2710 -13.4171  -4.3891
    -3.5797  -2.7697   1.6765   1.7169   2.3978   4.7221   5.5303  13.0202
    13.3255  13.5263

          k =-0.2500 0.2500-0.2500 (  1074 PWs)   bands (ev):

   -20.2304 -18.9183 -18.4269 -16.1122 -15.1071 -14.7799 -14.2695  -4.9054
    -3.8508  -3.6428   1.7301   2.2719   2.8544   4.7461   7.6008  11.5391
    11.7533  14.2808

          k = 0.5000-0.5000 0.5000 (  1068 PWs)   bands (ev):

   -19.8672 -17.7272 -17.1811 -16.6880 -15.5866 -13.4004 -12.5575  -5.5768
    -4.0824  -4.0544   1.6889   3.1555   3.2217   5.1091   8.9016  10.4956
    11.5292  15.3260

          k = 0.0000 0.5000 0.0000 (  1062 PWs)   bands (ev):

   -20.0384 -17.5578 -15.8453 -15.4747 -14.5312 -12.2116 -11.5637  -5.1685
    -3.8121  -3.3990   1.3433   2.6776   3.0408   4.9980   8.1620   9.6306
    14.3810  14.5048

          k = 0.7500-0.2500 0.7500 (  1076 PWs)   bands (ev):

   -19.8095 -19.5909 -18.5971 -17.6182 -15.9751 -15.1540 -14.0907  -5.8520
    -4.4545  -3.3761   1.8754   2.7410   3.3280   5.0783   9.0485   9.7170
    13.8075  14.8638

          k = 0.5000 0.0000 0.5000 (  1065 PWs)   bands (ev):

   -19.7360 -17.4902 -17.1215 -15.8874 -14.1163 -13.7836 -12.1752  -5.7604
    -4.0798  -3.3682   2.1956   2.4368   3.1222   5.0793   8.8651  10.0846
    13.1843  13.9765

          k = 0.0000-1.0000 0.0000 (  1090 PWs)   bands (ev):

   -23.5751 -22.2924 -19.3490 -18.5531 -18.1287 -16.4524 -15.1589  -5.7242
    -4.4062  -3.6370   1.0381   3.5106   3.9590   4.9506   8.7568   9.1630
    15.2042  15.6734

          k =-0.5000-1.0000 0.0000 (  1084 PWs)   bands (ev):

   -20.5701 -20.5230 -19.3240 -17.5175 -17.1537 -17.0214 -16.2678  -5.8821
    -5.0241  -2.7678   1.9431   3.0387   3.4972   4.9774   8.3138   9.5913
    14.6699  14.7501

          k =-0.2500 0.2500 0.2500 (  1074 PWs)   bands (ev):

   -20.1254 -18.9376 -18.4308 -16.0831 -15.4046 -14.7097 -14.2822  -5.0662
    -3.6896  -3.0772   2.0128   2.0924   2.6129   4.7588   7.4456  11.4585
    12.0565  13.6757

          k = 0.5000-0.5000-0.5000 (  1068 PWs)   bands (ev):

   -19.5729 -17.7529 -17.2323 -16.6830 -16.1650 -13.3777 -12.5684  -5.5806
    -3.9570  -3.3329   2.2394   2.4976   3.5519   5.1590   8.4482   9.9259
    12.3373  13.6543

          k = 0.5000 0.0000 0.0000 (  1062 PWs)   bands (ev):

   -20.0651 -17.9236 -15.4105 -14.5416 -14.5181 -12.8786 -11.4892  -4.7784
    -4.2736  -3.6386   0.9820   2.7794   3.4368   4.6635   7.9984  11.5264
    14.4036  14.6339

          k =-0.2500 0.7500-0.7500 (  1076 PWs)   bands (ev):

   -19.6816 -19.4981 -18.2749 -16.9712 -16.1740 -15.7721 -14.5277  -5.4605
    -4.4933  -4.1095   1.2880   3.1694   3.8576   5.1273   8.9878  11.5243
    12.6545  14.6333

          k = 0.2500-0.7500-0.7500 (  1076 PWs)   bands (ev):

   -19.5392 -19.4951 -18.2779 -16.9837 -16.3627 -15.9105 -14.4932  -5.9327
    -3.8618  -3.6637   1.4763   3.0339   3.3791   5.2785   8.7778  11.0377
    13.5352  14.3545

          k = 0.7500 0.2500 0.7500 (  1076 PWs)   bands (ev):

   -19.7966 -19.4586 -18.5982 -17.6177 -16.3565 -15.0819 -14.0925  -5.7802
    -4.3466  -3.1790   1.7654   3.0474   3.5099   5.0457   8.8704   9.2810
    13.4793  14.4421

          k = 0.0000 0.5000-0.5000 (  1065 PWs)   bands (ev):

   -19.8685 -17.0526 -16.3091 -15.6027 -14.9502 -13.3302 -13.3041  -5.4854
    -4.1794  -4.1097   1.8471   2.6716   3.3509   5.1853   9.2816  11.0826
    11.9891  13.8120

          k = 0.0000-0.5000-0.5000 (  1065 PWs)   bands (ev):

[...]

     total cpu time spent up to now is      385.8 secs

     total energy              =    -386.43920134 Ry
     Harris-Foulkes estimate   =    -386.44505492 Ry
     estimated scf accuracy    <       0.01516458 Ry

     iteration # 20     ecut=    40.00 Ry     beta= 0.70
     Davidson diagonalization with overlap
     ethr =  1.81E-05,  avg # of iterations =  2.0

     negative rho (up, down):  1.203E+01 0.000E+00

     total cpu time spent up to now is      386.2 secs

     total energy              =    -386.43742402 Ry
     Harris-Foulkes estimate   =    -386.43974061 Ry
     estimated scf accuracy    <       0.00326621 Ry

     iteration # 21     ecut=    40.00 Ry     beta= 0.70
     Davidson diagonalization with overlap
     ethr =  1.17E-05,  avg # of iterations =  1.8

     negative rho (up, down):  1.203E+01 0.000E+00

     total cpu time spent up to now is      386.7 secs

     total energy              =    -386.43609166 Ry
     Harris-Foulkes estimate   =    -386.43751943 Ry
     estimated scf accuracy    <       0.00086813 Ry

     iteration # 22     ecut=    40.00 Ry     beta= 0.70
     Davidson diagonalization with overlap
     ethr =  3.10E-06,  avg # of iterations =  2.0

     negative rho (up, down):  1.203E+01 0.000E+00

     total cpu time spent up to now is      387.2 secs

     total energy              =    -386.43515852 Ry
     Harris-Foulkes estimate   =    -386.43613218 Ry
     estimated scf accuracy    <       0.00013312 Ry

     iteration # 23     ecut=    40.00 Ry     beta= 0.70
     Davidson diagonalization with overlap
     ethr =  4.75E-07,  avg # of iterations =  2.3

     negative rho (up, down):  1.203E+01 0.000E+00

     total cpu time spent up to now is      387.6 secs

     End of self-consistent calculation

          k = 0.0000 0.0000 0.0000 (  1067 PWs)   bands (ev):

   -20.1831 -16.6268 -14.9359 -14.9175 -14.6662 -14.5964 -13.4251  -4.4349
    -3.1222  -2.6047   1.5592   1.5748   2.0553   3.7216   5.3365  12.9006
    13.1111  13.1380

          k =-0.2500 0.2500-0.2500 (  1074 PWs)   bands (ev):

   -19.8336 -19.2415 -18.4033 -16.0486 -15.1253 -14.4263 -13.9173  -4.9787
    -3.5119  -3.4364   1.6409   2.1700   2.5379   3.7554   7.4435  11.2907
    11.6386  13.8775

          k = 0.5000-0.5000 0.5000 (  1068 PWs)   bands (ev):

   -19.3929 -17.7712 -17.2840 -16.6411 -15.6947 -13.2389 -12.2153  -5.6263
    -3.9870  -3.6987   1.5766   2.9111   3.1401   4.2518   8.6320  10.1351
    11.5041  14.8489

          k = 0.0000 0.5000 0.0000 (  1062 PWs)   bands (ev):

   -19.6415 -17.6660 -15.8152 -15.4476 -14.1517 -12.4678 -11.1863  -5.2090
    -3.6639  -3.2035   1.1878   2.6212   2.8912   4.0234   7.9943   9.3732
    14.3136  14.3963

          k = 0.7500-0.2500 0.7500 (  1076 PWs)   bands (ev):

   -19.8052 -19.1365 -18.7643 -17.4565 -16.0524 -14.8630 -13.9387  -5.8844
    -4.3718  -3.1708   1.7449   2.6599   3.1360   4.3097   8.6827   9.4758
    13.6268  14.6266

          k = 0.5000 0.0000 0.5000 (  1065 PWs)   bands (ev):

   -19.2885 -17.7732 -17.0073 -15.9161 -14.0668 -13.5074 -11.9051  -5.7715
    -4.0166  -3.1696   2.0993   2.3133   2.8616   4.3184   8.6680   9.8799
    12.9592  13.6344

          k = 0.0000-1.0000 0.0000 (  1090 PWs)   bands (ev):

   -23.5668 -21.9124 -18.9382 -18.7759 -18.1382 -16.5137 -14.8112  -5.7976
    -4.3082  -3.5376   0.8596   3.3414   3.9282   4.2762   8.2805   9.0054
    15.0331  15.4295

          k =-0.5000-1.0000 0.0000 (  1084 PWs)   bands (ev):

   -20.8906 -20.5147 -18.8077 -17.5161 -16.8470 -16.6599 -16.2542  -5.9710
    -4.9684  -2.5809   1.8415   2.8677   3.3707   4.2117   7.8659   9.5239
    14.5114  14.5186

          k =-0.2500 0.2500 0.2500 (  1074 PWs)   bands (ev):

   -19.7516 -19.2488 -18.4073 -16.0187 -15.3396 -14.4111 -13.9177  -5.0598
    -3.5302  -2.9559   1.9094   1.9789   2.3318   3.8776   7.3406  11.2809
    11.8062  13.3531

          k = 0.5000-0.5000-0.5000 (  1068 PWs)   bands (ev):

   -19.1479 -17.8055 -17.3014 -16.6389 -16.1335 -13.2144 -12.2297  -5.5955
    -3.9333  -3.2415   2.0263   2.2704   3.4682   4.5141   8.3429   9.7985
    11.9783  13.4047

          k = 0.5000 0.0000 0.0000 (  1062 PWs)   bands (ev):

   -19.6576 -18.2493 -15.4328 -14.1651 -14.1439 -12.8556 -11.4905  -4.8229
    -3.9215  -3.5407   0.6976   2.7548   3.1890   3.8565   7.9545  10.8954
    14.3659  14.4302

          k =-0.2500 0.7500-0.7500 (  1076 PWs)   bands (ev):

   -19.5410 -19.1545 -18.2456 -16.6165 -16.1685 -15.8378 -14.5424  -5.5422
    -4.1601  -4.0065   1.0654   3.0693   3.6093   4.4707   8.8250  10.9389
    12.6592  14.2455

          k = 0.2500-0.7500-0.7500 (  1076 PWs)   bands (ev):

   -19.5182 -19.0174 -18.2479 -16.6297 -16.3916 -15.8785 -14.5230  -5.8830
    -3.7830  -3.6003   1.1674   3.0726   3.0879   4.7203   8.7280  10.5981
    13.1744  14.1008

          k = 0.7500 0.2500 0.7500 (  1076 PWs)   bands (ev):

   -19.8144 -18.9930 -18.7613 -17.4516 -16.3500 -14.8104 -13.9454  -5.8329
    -4.3016  -3.0483   1.6605   2.7564   3.3467   4.4457   8.5232   9.1936
    13.3689  14.1948

          k = 0.0000 0.5000-0.5000 (  1065 PWs)   bands (ev):

   -19.4001 -17.0458 -15.9284 -15.7138 -15.1531 -13.4325 -12.9401  -5.5786
    -4.0649  -3.7281   1.8040   2.5486   3.0483   4.3672   8.9923  11.0185
    11.5093  13.5038

          k = 0.0000-0.5000-0.5000 (  1065 PWs)   bands (ev):

   -19.1602 -17.0480 -16.1719 -15.9283 -15.2070 -13.4031 -12.8544  -5.8359
    -3.5741  -3.2715   2.3583   2.4014   2.5699   4.6519   8.7801   9.8899
    11.4475  13.9115

          k =-1.0000 0.0000 0.0000 (  1090 PWs)   bands (ev):

   -21.9236 -21.9114 -18.9073 -18.8651 -18.0343 -16.7352 -16.2445  -5.1535
    -4.5462  -4.2190   0.0089   3.7539   4.2082   4.5573   8.2895  11.2179
    15.0161  15.6150

          k =-1.0000-0.5000 0.0000 (  1084 PWs)   bands (ev):

   -20.4421 -18.8748 -18.8352 -18.3315 -18.1219 -16.7435 -16.3254  -6.0012
    -4.5622  -3.2085   1.7075   2.5518   3.2639   4.7892   8.8247  10.0938
    13.6019  14.8069

     the Fermi energy is     5.1556 ev

!    total energy              =    -386.43549484 Ry
     Harris-Foulkes estimate   =    -386.43517582 Ry
     estimated scf accuracy    <       0.00000012 Ry

     The total energy is the sum of the following terms:

     one-electron contribution =    -199.66849627 Ry
     hartree contribution      =     129.17827543 Ry
     xc contribution           =     -67.86264470 Ry
     ewald contribution        =    -248.08232899 Ry
     smearing contrib. (-TS)   =      -0.00030031 Ry

     convergence has been achieved in  23 iterations

     negative rho (up, down):  1.203E+01 0.000E+00

     Forces acting on atoms (cartesian axes, Ry/au):

     atom    1 type  1   force =     5.79470438    0.00000000    0.00000000
     atom    2 type  2   force =    -5.79470438    0.00000000   -0.00000000

     Total force =     8.194950     Total SCF correction =     0.001704

     number of scf cycles    =  34
     number of bfgs steps    =   5

     energy   old            =    -387.3212485200 Ry
     energy   new            =    -386.4354948450 Ry

     CASE: energy  _new > energy  _old

     new trust radius        =       0.0005273991 bohr
     new conv_thr            =       0.0000007795 Ry


ATOMIC_POSITIONS (alat)
La      -0.004756899   0.000000000   0.000000000
F        0.204756899   0.250000000   0.250000000



     Writing output data file CaF2.save/
     NEW-OLD atomic charge density approx. for the potential

     Check: negative core charge=   -0.000015

     negative rho (up, down):  1.206E+01 0.000E+00

     total cpu time spent up to now is      387.8 secs

     Self-consistent Calculation

     iteration #  1     ecut=    40.00 Ry     beta= 0.70
     Davidson diagonalization with overlap
     ethr =  1.00E-06,  avg # of iterations = 10.2

     negative rho (up, down):  2.282E+00 0.000E+00

     total cpu time spent up to now is      389.3 secs

     total energy              =    -383.87642922 Ry
     Harris-Foulkes estimate   =    -385.54879798 Ry
     estimated scf accuracy    <       5.34744140 Ry

     iteration #  2     ecut=    40.00 Ry     beta= 0.70
     Davidson diagonalization with overlap
     ethr =  1.00E-02,  avg # of iterations =  3.9

     negative rho (up, down):  6.994E+00 0.000E+00

     total cpu time spent up to now is      390.0 secs

     total energy              =    -388.69665388 Ry
     Harris-Foulkes estimate   =    -393.35656627 Ry
     estimated scf accuracy    <      22.54289311 Ry

     iteration #  3     ecut=    40.00 Ry     beta= 0.70
     Davidson diagonalization with overlap
     ethr =  1.00E-02,  avg # of iterations =  2.6

     negative rho (up, down):  1.292E+01 0.000E+00

     total cpu time spent up to now is      390.5 secs

     total energy              =    -384.65360151 Ry
     Harris-Foulkes estimate   =    -389.27175568 Ry
     estimated scf accuracy    <       8.39092362 Ry

     iteration #  4     ecut=    40.00 Ry     beta= 0.70
     Davidson diagonalization with overlap
     ethr =  1.00E-02,  avg # of iterations =  2.7

     negative rho (up, down):  1.200E+01 0.000E+00

     total cpu time spent up to now is      391.0 secs

     total energy              =    -387.15746074 Ry
     Harris-Foulkes estimate   =    -387.51972340 Ry
     estimated scf accuracy    <       5.90123698 Ry

     iteration #  5     ecut=    40.00 Ry     beta= 0.70
     Davidson diagonalization with overlap
     ethr =  1.00E-02,  avg # of iterations =  1.8

     negative rho (up, down):  1.095E+01 0.000E+00

     total cpu time spent up to now is      391.5 secs

     total energy              =    -387.05936103 Ry
     Harris-Foulkes estimate   =    -387.30353402 Ry
     estimated scf accuracy    <       2.60539658 Ry

     iteration #  6     ecut=    40.00 Ry     beta= 0.70
     Davidson diagonalization with overlap
     ethr =  9.30E-03,  avg # of iterations =  2.2

     negative rho (up, down):  1.075E+01 0.000E+00

     total cpu time spent up to now is      392.0 secs

     total energy              =    -387.39268338 Ry
     Harris-Foulkes estimate   =    -387.32100044 Ry
     estimated scf accuracy    <       0.03858584 Ry

     iteration #  7     ecut=    40.00 Ry     beta= 0.70
     Davidson diagonalization with overlap
     ethr =  1.38E-04,  avg # of iterations =  3.9

     negative rho (up, down):  1.042E+01 0.000E+00

     total cpu time spent up to now is      392.8 secs

     total energy              =    -387.51510786 Ry
     Harris-Foulkes estimate   =    -387.41022060 Ry
     estimated scf accuracy    <       0.23084968 Ry

     iteration #  8     ecut=    40.00 Ry     beta= 0.70
     Davidson diagonalization with overlap
     ethr =  1.38E-04,  avg # of iterations =  2.9

     negative rho (up, down):  1.089E+01 0.000E+00

     total cpu time spent up to now is      393.4 secs

     total energy              =    -387.25408252 Ry
     Harris-Foulkes estimate   =    -387.54317960 Ry
     estimated scf accuracy    <       0.76056147 Ry

     iteration #  9     ecut=    40.00 Ry     beta= 0.70
     Davidson diagonalization with overlap
     ethr =  1.38E-04,  avg # of iterations =  3.2

     negative rho (up, down):  1.088E+01 0.000E+00

     total cpu time spent up to now is      394.0 secs

     total energy              =    -387.32168074 Ry
     Harris-Foulkes estimate   =    -387.32169987 Ry
     estimated scf accuracy    <       0.00588996 Ry

     iteration # 10     ecut=    40.00 Ry     beta= 0.70
     Davidson diagonalization with overlap
     ethr =  2.10E-05,  avg # of iterations =  2.4

     negative rho (up, down):  1.091E+01 0.000E+00

     total cpu time spent up to now is      394.5 secs

     total energy              =    -387.31369079 Ry
     Harris-Foulkes estimate   =    -387.32195112 Ry
     estimated scf accuracy    <       0.00216472 Ry

     iteration # 11     ecut=    40.00 Ry     beta= 0.70
     Davidson diagonalization with overlap
     ethr =  7.73E-06,  avg # of iterations =  3.8

     negative rho (up, down):  1.088E+01 0.000E+00

     total cpu time spent up to now is      395.2 secs

     total energy              =    -387.32280257 Ry
     Harris-Foulkes estimate   =    -387.31446204 Ry
     estimated scf accuracy    <       0.00171180 Ry

     iteration # 12     ecut=    40.00 Ry     beta= 0.70
     Davidson diagonalization with overlap
     ethr =  6.11E-06,  avg # of iterations =  2.2

     negative rho (up, down):  1.089E+01 0.000E+00

     total cpu time spent up to now is      395.7 secs

     total energy              =    -387.31972249 Ry
     Harris-Foulkes estimate   =    -387.32318771 Ry
     estimated scf accuracy    <       0.00054937 Ry

     iteration # 13     ecut=    40.00 Ry     beta= 0.70
     Davidson diagonalization with overlap
     ethr =  1.96E-06,  avg # of iterations =  2.0

     negative rho (up, down):  1.089E+01 0.000E+00

     total cpu time spent up to now is      396.2 secs

     total energy              =    -387.32010917 Ry
     Harris-Foulkes estimate   =    -387.31979046 Ry
     estimated scf accuracy    <       0.00001714 Ry

     iteration # 14     ecut=    40.00 Ry     beta= 0.70
     Davidson diagonalization with overlap
     ethr =  6.12E-08,  avg # of iterations =  2.1

     negative rho (up, down):  1.089E+01 0.000E+00

     total cpu time spent up to now is      396.8 secs

     End of self-consistent calculation

          k = 0.0000 0.0000 0.0000 (  1067 PWs)   bands (ev):

   -20.5424 -16.6615 -15.3140 -15.3134 -14.7147 -14.2880 -13.4278  -4.3957
    -3.5939  -2.7784   1.6688   1.7054   2.3977   4.6967   5.5228  13.0097
    13.3304  13.5170

          k =-0.2500 0.2500-0.2500 (  1074 PWs)   bands (ev):

   -20.2396 -18.9319 -18.4376 -16.1222 -15.1136 -14.7874 -14.2834  -4.9115
    -3.8643  -3.6524   1.7175   2.2631   2.8542   4.7217   7.5940  11.5289
    11.7479  14.2723

          k = 0.5000-0.5000 0.5000 (  1068 PWs)   bands (ev):

   -19.8760 -17.7356 -17.1950 -16.6988 -15.5929 -13.4098 -12.5719  -5.5839
    -4.0952  -4.0630   1.6743   3.1450   3.2216   5.0868   8.8984  10.4879
    11.5206  15.3178

          k = 0.0000 0.5000 0.0000 (  1062 PWs)   bands (ev):

   -20.0463 -17.5701 -15.8553 -15.4826 -14.5412 -12.2274 -11.5747  -5.1762
    -3.8215  -3.4082   1.3356   2.6673   3.0334   4.9755   8.1534   9.6278
    14.3747  14.4939

          k = 0.7500-0.2500 0.7500 (  1076 PWs)   bands (ev):

   -19.8235 -19.5960 -18.6097 -17.6296 -15.9827 -15.1616 -14.1031  -5.8601
    -4.4639  -3.3852   1.8663   2.7270   3.3203   5.0599   9.0373   9.7186
    13.8003  14.8543

          k = 0.5000 0.0000 0.5000 (  1065 PWs)   bands (ev):

   -19.7440 -17.5050 -17.1315 -15.8954 -14.1273 -13.7937 -12.1866  -5.7691
    -4.0877  -3.3775   2.1835   2.4280   3.1133   5.0606   8.8617  10.0771
    13.1755  13.9680

          k = 0.0000-1.0000 0.0000 (  1090 PWs)   bands (ev):

   -23.5844 -22.3013 -19.3596 -18.5648 -18.1389 -16.4621 -15.1691  -5.7321
    -4.4161  -3.6439   1.0273   3.5012   3.9498   4.9286   8.7435   9.1653
    15.1946  15.6685

          k =-0.5000-1.0000 0.0000 (  1084 PWs)   bands (ev):

   -20.5874 -20.5327 -19.3285 -17.5276 -17.1678 -17.0277 -16.2764  -5.8902
    -5.0328  -2.7764   1.9329   3.0294   3.4895   4.9540   8.3019   9.5912
    14.6603  14.7478

          k =-0.2500 0.2500 0.2500 (  1074 PWs)   bands (ev):

   -20.1338 -18.9523 -18.4409 -16.0939 -15.4129 -14.7224 -14.2895  -5.0753
    -3.6984  -3.0852   2.0033   2.0819   2.6067   4.7351   7.4410  11.4566
    12.0480  13.6648

          k = 0.5000-0.5000-0.5000 (  1068 PWs)   bands (ev):

   -19.5800 -17.7635 -17.2502 -16.6929 -16.1730 -13.3907 -12.5761  -5.5901
    -3.9637  -3.3403   2.2284   2.4869   3.5453   5.1368   8.4450   9.9188
    12.3310  13.6409

          k = 0.5000 0.0000 0.0000 (  1062 PWs)   bands (ev):

   -20.0728 -17.9399 -15.4175 -14.5481 -14.5318 -12.8885 -11.4998  -4.7851
    -4.2863  -3.6467   0.9686   2.7700   3.4358   4.6415   7.9957  11.5117
    14.4050  14.6276

          k =-0.2500 0.7500-0.7500 (  1076 PWs)   bands (ev):

   -19.6948 -19.5034 -18.2855 -16.9844 -16.1836 -15.7784 -14.5407  -5.4663
    -4.5059  -4.1193   1.2732   3.1592   3.8570   5.1074   8.9899  11.5093
    12.6452  14.6233

          k = 0.2500-0.7500-0.7500 (  1076 PWs)   bands (ev):

   -19.5524 -19.5041 -18.2877 -16.9902 -16.3722 -15.9193 -14.5091  -5.9428
    -3.8697  -3.6703   1.4627   3.0230   3.3697   5.2646   8.7756  11.0236
    13.5297  14.3484

          k = 0.7500 0.2500 0.7500 (  1076 PWs)   bands (ev):

   -19.8079 -19.4651 -18.6106 -17.6276 -16.3667 -15.0936 -14.1024  -5.7888
    -4.3546  -3.1869   1.7554   3.0372   3.5016   5.0242   8.8603   9.2784
    13.4728  14.4315

          k = 0.0000 0.5000-0.5000 (  1065 PWs)   bands (ev):

   -19.8769 -17.0630 -16.3225 -15.6088 -14.9640 -13.3408 -13.3136  -5.4905
    -4.1902  -4.1228   1.8335   2.6603   3.3508   5.1639   9.2814  11.0743
    11.9719  13.8134

          k = 0.0000-0.5000-0.5000 (  1065 PWs)   bands (ev):

   -19.5886 -17.0661 -16.3099 -16.2301 -15.0348 -13.3172 -13.1963  -5.8382
    -3.6031  -3.3705   2.3494   2.7116   2.8758   5.1655   8.7973  10.0222
    11.8011  14.1569

          k =-1.0000 0.0000 0.0000 (  1090 PWs)   bands (ev):

   -22.3177 -22.3089 -19.4380 -18.5954 -18.0507 -16.7202 -16.1166  -5.1205
    -4.8567  -4.2979   0.3801   3.7072   4.4094   5.1690   8.3697  12.0237
    14.8822  16.0285

          k =-1.0000-0.5000 0.0000 (  1084 PWs)   bands (ev):

   -20.3416 -19.3902 -19.2540 -18.3315 -17.9173 -17.0614 -16.2516  -6.0117
    -4.6306  -3.3575   1.8885   2.7058   3.4779   5.2766   9.0572  10.4820
    13.8418  15.0734

     the Fermi energy is     5.5831 ev

!    total energy              =    -387.31967386 Ry
     Harris-Foulkes estimate   =    -387.32011126 Ry
     estimated scf accuracy    <       0.00000036 Ry

     The total energy is the sum of the following terms:

     one-electron contribution =    -200.70440461 Ry
     hartree contribution      =     128.74512611 Ry
     xc contribution           =     -67.52034422 Ry
     ewald contribution        =    -247.83925322 Ry
     smearing contrib. (-TS)   =      -0.00079790 Ry

     convergence has been achieved in  14 iterations

     negative rho (up, down):  1.089E+01 0.000E+00

     Forces acting on atoms (cartesian axes, Ry/au):

     atom    1 type  1   force =     0.04507284    0.00000000    0.00000000
     atom    2 type  2   force =    -0.04507284    0.00000000    0.00000000

     Total force =     0.063743     Total SCF correction =     0.010022
     SCF correction compared to forces is large: reduce conv_thr to get better values

     number of scf cycles    =  35
     number of bfgs steps    =   5

     energy   old            =    -387.3212485200 Ry
     energy   new            =    -387.3196738552 Ry

     CASE: energy  _new > energy  _old

     new trust radius        =       0.0000130851 bohr

     trust_radius < trust_radius_min

     resetting bfgs history

     new conv_thr            =       0.0000007795 Ry


ATOMIC_POSITIONS (alat)
La      -0.012498688  -0.000000000   0.000000000
F        0.212498688   0.250000000   0.250000000



     Writing output data file CaF2.save/
     NEW-OLD atomic charge density approx. for the potential

     Check: negative core charge=   -0.000015

     negative rho (up, down):  1.088E+01 0.000E+00

     total cpu time spent up to now is      397.0 secs

     Self-consistent Calculation

     iteration #  1     ecut=    40.00 Ry     beta= 0.70
     Davidson diagonalization with overlap
     ethr =  1.00E-06,  avg # of iterations = 10.7

     negative rho (up, down):  1.638E+00 0.000E+00

     total cpu time spent up to now is      398.7 secs

     total energy              =    -383.21129523 Ry
     Harris-Foulkes estimate   =    -386.96096500 Ry
     estimated scf accuracy    <       6.21273266 Ry

     iteration #  2     ecut=    40.00 Ry     beta= 0.70
     Davidson diagonalization with overlap
