
     Program PWSCF v.6.4.1 starts on 25Dec2019 at 18:19:12 

     This program is part of the open-source Quantum ESPRESSO suite
     for quantum simulation of materials; please cite
         "P. Giannozzi et al., J. Phys.:Condens. Matter 21 395502 (2009);
         "P. Giannozzi et al., J. Phys.:Condens. Matter 29 465901 (2017);
          URL http://www.quantum-espresso.org", 
     in publications or presentations arising from this work. More details at
     http://www.quantum-espresso.org/quote

     Parallel version (MPI), running on     4 processors

     MPI processes distributed on     1 nodes
     R & G space division:  proc/nbgrp/npool/nimage =       4
     Reading input from LaH2.vc_relax.in

     Current dimensions of program PWSCF are:
     Max number of different atomic species (ntypx) = 10
     Max number of k-points (npk) =  40000
     Max angular momentum in pseudopotentials (lmaxx) =  3
               file La.pbe-spdfn-rrkjus_psl.1.0.0.UPF: wavefunction(s)  5S 4F renormalized

     Subspace diagonalization in iterative solution of the eigenvalue problem:
     a serial algorithm will be used


     Parallelization info
     --------------------
     sticks:   dense  smooth     PW     G-vecs:    dense   smooth      PW
     Min         105     105     31                 1394     1394     241
     Max         106     106     32                 1395     1395     242
     Sum         421     421    127                 5577     5577     965



     bravais-lattice index     =            2
     lattice parameter (alat)  =      10.0000  a.u.
     unit-cell volume          =     250.0000 (a.u.)^3
     number of atoms/cell      =            3
     number of atomic types    =            2
     number of electrons       =        23.00
     number of Kohn-Sham states=           16
     kinetic-energy cutoff     =      30.0000  Ry
     charge density cutoff     =     120.0000  Ry
     convergence threshold     =      1.0E-05
     mixing beta               =       0.7000
     number of iterations used =            8  plain     mixing
     Exchange-correlation      = PBE ( 1  4  3  4 0 0)
     nstep                     =           50


     celldm(1)=  10.000000  celldm(2)=   0.000000  celldm(3)=   0.000000
     celldm(4)=   0.000000  celldm(5)=   0.000000  celldm(6)=   0.000000

     crystal axes: (cart. coord. in units of alat)
               a(1) = (  -0.500000   0.000000   0.500000 )  
               a(2) = (   0.000000   0.500000   0.500000 )  
               a(3) = (  -0.500000   0.500000   0.000000 )  

     reciprocal axes: (cart. coord. in units 2 pi/alat)
               b(1) = ( -1.000000 -1.000000  1.000000 )  
               b(2) = (  1.000000  1.000000  1.000000 )  
               b(3) = ( -1.000000  1.000000 -1.000000 )  


     PseudoPot. # 1 for La read from file:
     /home/adikshith/qe-6.4.1/pslibrary.1.0.0/pbe/PSEUDOPOTENTIALS/La.pbe-spdfn-rrkjus_psl.1.0.0.UPF
     MD5 check sum: 67c7391081f7f1061cca01c3c0960019
     Pseudo is Ultrasoft + core correction, Zval = 21.0
     Generated using "atomic" code by A. Dal Corso v.6.4.1
     Using radial grid of 1253 points,  8 beta functions with: 
                l(1) =   0
                l(2) =   0
                l(3) =   1
                l(4) =   1
                l(5) =   2
                l(6) =   2
                l(7) =   3
                l(8) =   3
     Q(r) pseudized with 0 coefficients 


     PseudoPot. # 2 for H  read from file:
     /home/adikshith/qe-6.4.1/pslibrary.1.0.0/pbe/PSEUDOPOTENTIALS/H.pbe-rrkjus_psl.1.0.0.UPF
     MD5 check sum: 77026f9b46fdf08c3bb40ff61dc2e5ca
     Pseudo is Ultrasoft, Zval =  1.0
     Generated using "atomic" code by A. Dal Corso v.6.4.1
     Using radial grid of  929 points,  2 beta functions with: 
                l(1) =   0
                l(2) =   0
     Q(r) pseudized with 0 coefficients 


     atomic species   valence    mass     pseudopotential
        La            21.00   139.07800     La( 1.00)
        H              1.00     1.00000     H ( 1.00)

     48 Sym. Ops., with inversion, found



   Cartesian axes

     site n.     atom                  positions (alat units)
         1           La  tau(   1) = (   0.0000000   0.0000000   0.0000000  )
         2           H   tau(   2) = (   0.2500000   0.2500000   0.2500000  )
         3           H   tau(   3) = (   0.2500000   0.7500000   0.2500000  )

     number of k points=     8  gaussian smearing, width (Ry)=  0.0100
                       cart. coord. in units 2pi/alat
        k(    1) = (   0.0000000   0.0000000   0.0000000), wk =   0.0312500
        k(    2) = (  -0.2500000   0.2500000  -0.2500000), wk =   0.2500000
        k(    3) = (   0.5000000  -0.5000000   0.5000000), wk =   0.1250000
        k(    4) = (   0.0000000   0.5000000   0.0000000), wk =   0.1875000
        k(    5) = (   0.7500000  -0.2500000   0.7500000), wk =   0.7500000
        k(    6) = (   0.5000000   0.0000000   0.5000000), wk =   0.3750000
        k(    7) = (   0.0000000  -1.0000000   0.0000000), wk =   0.0937500
        k(    8) = (  -0.5000000  -1.0000000   0.0000000), wk =   0.1875000

     Dense  grid:     5577 G-vectors     FFT dimensions: (  25,  25,  25)

     Estimated max dynamical RAM per process >      27.21 MB

     Estimated total dynamical RAM >     108.85 MB

     Check: negative core charge=   -0.000018

     Initial potential from superposition of free atoms

     starting charge   22.99144, renormalised to   23.00000
     Starting wfcs are   24 randomized atomic wfcs

     total cpu time spent up to now is        3.8 secs

     Self-consistent Calculation

     iteration #  1     ecut=    30.00 Ry     beta= 0.70
     Davidson diagonalization with overlap
     ethr =  1.00E-02,  avg # of iterations =  2.9

     total cpu time spent up to now is        4.1 secs

     total energy              =    -265.14891739 Ry
     Harris-Foulkes estimate   =    -312.60418385 Ry
     estimated scf accuracy    <      55.77281700 Ry

     iteration #  2     ecut=    30.00 Ry     beta= 0.70
     Davidson diagonalization with overlap
     ethr =  1.00E-02,  avg # of iterations =  5.6

     total cpu time spent up to now is        4.5 secs

     total energy              =    -292.94888546 Ry
     Harris-Foulkes estimate   =    -350.16873052 Ry
     estimated scf accuracy    <     128.77538283 Ry

     iteration #  3     ecut=    30.00 Ry     beta= 0.70
     Davidson diagonalization with overlap
     ethr =  1.00E-02,  avg # of iterations =  3.6

     total cpu time spent up to now is        4.8 secs

     total energy              =    -306.06351459 Ry
     Harris-Foulkes estimate   =    -308.32592478 Ry
     estimated scf accuracy    <      15.87926621 Ry

     iteration #  4     ecut=    30.00 Ry     beta= 0.70
     Davidson diagonalization with overlap
     ethr =  1.00E-02,  avg # of iterations =  1.9

     total cpu time spent up to now is        5.0 secs

     total energy              =    -298.35684497 Ry
     Harris-Foulkes estimate   =    -306.12759840 Ry
     estimated scf accuracy    <      11.64406634 Ry

     iteration #  5     ecut=    30.00 Ry     beta= 0.70
     Davidson diagonalization with overlap
     ethr =  1.00E-02,  avg # of iterations =  3.9

     total cpu time spent up to now is        5.3 secs

     total energy              =    -302.16979053 Ry
     Harris-Foulkes estimate   =    -307.19054493 Ry
     estimated scf accuracy    <      44.32989670 Ry

     iteration #  6     ecut=    30.00 Ry     beta= 0.70
     Davidson diagonalization with overlap
     ethr =  1.00E-02,  avg # of iterations =  2.5

     total cpu time spent up to now is        5.6 secs

     total energy              =    -303.35547295 Ry
     Harris-Foulkes estimate   =    -303.33214849 Ry
     estimated scf accuracy    <       8.90832883 Ry

     iteration #  7     ecut=    30.00 Ry     beta= 0.70
     Davidson diagonalization with overlap
     ethr =  1.00E-02,  avg # of iterations =  1.1

     total cpu time spent up to now is        5.8 secs

     total energy              =    -303.37845163 Ry
     Harris-Foulkes estimate   =    -303.36696480 Ry
     estimated scf accuracy    <       9.07954730 Ry

     iteration #  8     ecut=    30.00 Ry     beta= 0.70
     Davidson diagonalization with overlap
     ethr =  1.00E-02,  avg # of iterations =  1.4

     total cpu time spent up to now is        6.0 secs

     total energy              =    -303.09355855 Ry
     Harris-Foulkes estimate   =    -303.44855782 Ry
     estimated scf accuracy    <       9.50171469 Ry

     iteration #  9     ecut=    30.00 Ry     beta= 0.70
     Davidson diagonalization with overlap
     ethr =  1.00E-02,  avg # of iterations =  1.0

     total cpu time spent up to now is        6.1 secs

     total energy              =    -303.12527222 Ry
     Harris-Foulkes estimate   =    -303.14591494 Ry
     estimated scf accuracy    <       5.27288001 Ry

     iteration # 10     ecut=    30.00 Ry     beta= 0.70
     Davidson diagonalization with overlap
     ethr =  1.00E-02,  avg # of iterations =  1.0

     total cpu time spent up to now is        6.3 secs

     total energy              =    -302.53283301 Ry
     Harris-Foulkes estimate   =    -303.12805163 Ry
     estimated scf accuracy    <       4.97749651 Ry

     iteration # 11     ecut=    30.00 Ry     beta= 0.70
     Davidson diagonalization with overlap
     ethr =  1.00E-02,  avg # of iterations =  1.2

     total cpu time spent up to now is        6.5 secs

     total energy              =    -302.35790925 Ry
     Harris-Foulkes estimate   =    -302.68897229 Ry
     estimated scf accuracy    <       1.42745703 Ry

     iteration # 12     ecut=    30.00 Ry     beta= 0.70
     Davidson diagonalization with overlap
     ethr =  6.21E-03,  avg # of iterations =  1.5

     total cpu time spent up to now is        6.7 secs

     total energy              =    -302.61881426 Ry
     Harris-Foulkes estimate   =    -302.53296953 Ry
     estimated scf accuracy    <       0.42059858 Ry

     iteration # 13     ecut=    30.00 Ry     beta= 0.70
     Davidson diagonalization with overlap
     ethr =  1.83E-03,  avg # of iterations =  1.5

     total cpu time spent up to now is        6.9 secs

     total energy              =    -302.68752877 Ry
     Harris-Foulkes estimate   =    -302.66487994 Ry
     estimated scf accuracy    <       0.71358939 Ry

     iteration # 14     ecut=    30.00 Ry     beta= 0.70
     Davidson diagonalization with overlap
     ethr =  1.83E-03,  avg # of iterations =  1.1

     total cpu time spent up to now is        7.1 secs

     total energy              =    -302.72986183 Ry
     Harris-Foulkes estimate   =    -302.69378005 Ry
     estimated scf accuracy    <       0.80103388 Ry

     iteration # 15     ecut=    30.00 Ry     beta= 0.70
     Davidson diagonalization with overlap
     ethr =  1.83E-03,  avg # of iterations =  1.0

     total cpu time spent up to now is        7.3 secs

     total energy              =    -302.48360665 Ry
     Harris-Foulkes estimate   =    -302.73523546 Ry
     estimated scf accuracy    <       0.88602606 Ry

     iteration # 16     ecut=    30.00 Ry     beta= 0.70
     Davidson diagonalization with overlap
     ethr =  1.83E-03,  avg # of iterations =  2.0

     negative rho (up, down):  2.934E-01 0.000E+00

     total cpu time spent up to now is        7.5 secs

     total energy              =    -302.50989179 Ry
     Harris-Foulkes estimate   =    -302.60005831 Ry
     estimated scf accuracy    <       0.70622517 Ry

     iteration # 17     ecut=    30.00 Ry     beta= 0.70
     Davidson diagonalization with overlap
     ethr =  1.83E-03,  avg # of iterations =  2.2

     negative rho (up, down):  1.235E-01 0.000E+00

     total cpu time spent up to now is        7.8 secs

     total energy              =    -302.79771294 Ry
     Harris-Foulkes estimate   =    -303.00466919 Ry
     estimated scf accuracy    <       6.25740284 Ry

     iteration # 18     ecut=    30.00 Ry     beta= 0.70
     Davidson diagonalization with overlap
     ethr =  1.83E-03,  avg # of iterations =  1.0

     negative rho (up, down):  7.822E-02 0.000E+00

     total cpu time spent up to now is        8.0 secs

     total energy              =    -302.51633598 Ry
     Harris-Foulkes estimate   =    -302.81253595 Ry
     estimated scf accuracy    <       4.97815866 Ry

     iteration # 19     ecut=    30.00 Ry     beta= 0.70
     Davidson diagonalization with overlap
     ethr =  1.83E-03,  avg # of iterations =  1.4

     negative rho (up, down):  2.809E-01 0.000E+00

     total cpu time spent up to now is        8.2 secs

     total energy              =    -302.94671160 Ry
     Harris-Foulkes estimate   =    -302.56598487 Ry
     estimated scf accuracy    <       2.62339756 Ry

     iteration # 20     ecut=    30.00 Ry     beta= 0.70
     Davidson diagonalization with overlap
     ethr =  1.83E-03,  avg # of iterations =  2.0

     negative rho (up, down):  1.580E-01 0.000E+00

     total cpu time spent up to now is        8.4 secs

     total energy              =    -301.44714185 Ry
     Harris-Foulkes estimate   =    -303.09911897 Ry
     estimated scf accuracy    <       7.02962409 Ry

     iteration # 21     ecut=    30.00 Ry     beta= 0.70
     Davidson diagonalization with overlap
     ethr =  1.83E-03,  avg # of iterations =  2.5

     negative rho (up, down):  1.697E-01 0.000E+00

     total cpu time spent up to now is        8.7 secs

     total energy              =    -302.90612616 Ry
     Harris-Foulkes estimate   =    -302.10286111 Ry
     estimated scf accuracy    <       0.44829300 Ry

     iteration # 22     ecut=    30.00 Ry     beta= 0.70
     Davidson diagonalization with overlap
     ethr =  1.83E-03,  avg # of iterations =  2.6

     total cpu time spent up to now is        9.0 secs

     total energy              =    -301.08098529 Ry
     Harris-Foulkes estimate   =    -303.88716127 Ry
     estimated scf accuracy    <      14.11470787 Ry

     iteration # 23     ecut=    30.00 Ry     beta= 0.70
     Davidson diagonalization with overlap
     ethr =  1.83E-03,  avg # of iterations =  2.8

     total cpu time spent up to now is        9.2 secs

     total energy              =    -302.41613795 Ry
     Harris-Foulkes estimate   =    -302.41058706 Ry
     estimated scf accuracy    <       0.18388777 Ry

     iteration # 24     ecut=    30.00 Ry     beta= 0.70
     Davidson diagonalization with overlap
     ethr =  8.00E-04,  avg # of iterations =  1.0

     negative rho (up, down):  1.918E-04 0.000E+00

     total cpu time spent up to now is        9.4 secs

     total energy              =    -302.38380299 Ry
     Harris-Foulkes estimate   =    -302.41921644 Ry
     estimated scf accuracy    <       0.20646362 Ry

     iteration # 25     ecut=    30.00 Ry     beta= 0.70
     Davidson diagonalization with overlap
     ethr =  8.00E-04,  avg # of iterations =  1.0

     negative rho (up, down):  3.134E-03 0.000E+00

     total cpu time spent up to now is        9.6 secs

     total energy              =    -302.36670751 Ry
     Harris-Foulkes estimate   =    -302.38891278 Ry
     estimated scf accuracy    <       0.07881367 Ry

     iteration # 26     ecut=    30.00 Ry     beta= 0.70
     Davidson diagonalization with overlap
     ethr =  3.43E-04,  avg # of iterations =  1.1

     negative rho (up, down):  1.047E-06 0.000E+00

     total cpu time spent up to now is        9.8 secs

     total energy              =    -302.37599450 Ry
     Harris-Foulkes estimate   =    -302.38011954 Ry
     estimated scf accuracy    <       0.02241576 Ry

     iteration # 27     ecut=    30.00 Ry     beta= 0.70
     Davidson diagonalization with overlap
     ethr =  9.75E-05,  avg # of iterations =  2.4

     total cpu time spent up to now is       10.1 secs

     total energy              =    -302.38578109 Ry
     Harris-Foulkes estimate   =    -302.38635587 Ry
     estimated scf accuracy    <       0.04514583 Ry

     iteration # 28     ecut=    30.00 Ry     beta= 0.70
     Davidson diagonalization with overlap
     ethr =  9.75E-05,  avg # of iterations =  1.0

     total cpu time spent up to now is       10.3 secs

     total energy              =    -302.37772785 Ry
     Harris-Foulkes estimate   =    -302.38591643 Ry
     estimated scf accuracy    <       0.03748945 Ry

     iteration # 29     ecut=    30.00 Ry     beta= 0.70
     Davidson diagonalization with overlap
     ethr =  9.75E-05,  avg # of iterations =  2.0

     total cpu time spent up to now is       10.5 secs

     total energy              =    -302.38433066 Ry
     Harris-Foulkes estimate   =    -302.38467488 Ry
     estimated scf accuracy    <       0.00150323 Ry

     iteration # 30     ecut=    30.00 Ry     beta= 0.70
     Davidson diagonalization with overlap
     ethr =  6.54E-06,  avg # of iterations =  2.0

     total cpu time spent up to now is       10.7 secs

     total energy              =    -302.38313665 Ry
     Harris-Foulkes estimate   =    -302.38543407 Ry
     estimated scf accuracy    <       0.00529902 Ry

     iteration # 31     ecut=    30.00 Ry     beta= 0.70
     Davidson diagonalization with overlap
     ethr =  6.54E-06,  avg # of iterations =  2.0

     total cpu time spent up to now is       11.0 secs

     total energy              =    -302.37329980 Ry
     Harris-Foulkes estimate   =    -302.38528870 Ry
     estimated scf accuracy    <       0.00731385 Ry

     iteration # 32     ecut=    30.00 Ry     beta= 0.70
     Davidson diagonalization with overlap
     ethr =  6.54E-06,  avg # of iterations =  2.0

     total cpu time spent up to now is       11.2 secs

     total energy              =    -302.37862336 Ry
     Harris-Foulkes estimate   =    -302.38235677 Ry
     estimated scf accuracy    <       0.00225774 Ry

     iteration # 33     ecut=    30.00 Ry     beta= 0.70
     Davidson diagonalization with overlap
     ethr =  6.54E-06,  avg # of iterations =  2.0

     total cpu time spent up to now is       11.4 secs

     total energy              =    -302.38201673 Ry
     Harris-Foulkes estimate   =    -302.38416797 Ry
     estimated scf accuracy    <       0.00135174 Ry

     iteration # 34     ecut=    30.00 Ry     beta= 0.70
     Davidson diagonalization with overlap
     ethr =  5.88E-06,  avg # of iterations =  2.0

     negative rho (up, down):  8.974E-04 0.000E+00

     total cpu time spent up to now is       11.6 secs

     total energy              =    -302.36491056 Ry
     Harris-Foulkes estimate   =    -302.38413588 Ry
     estimated scf accuracy    <       0.00066324 Ry

     iteration # 35     ecut=    30.00 Ry     beta= 0.70
     Davidson diagonalization with overlap
     ethr =  2.88E-06,  avg # of iterations =  3.4

     negative rho (up, down):  9.939E-04 0.000E+00

     total cpu time spent up to now is       11.9 secs

     total energy              =    -302.37447886 Ry
     Harris-Foulkes estimate   =    -302.37220717 Ry
     estimated scf accuracy    <       0.01178883 Ry

     iteration # 36     ecut=    30.00 Ry     beta= 0.70
     Davidson diagonalization with overlap
     ethr =  2.88E-06,  avg # of iterations =  1.4

     negative rho (up, down):  1.549E-05 0.000E+00

     total cpu time spent up to now is       12.1 secs

     total energy              =    -302.38084308 Ry
     Harris-Foulkes estimate   =    -302.37453449 Ry
     estimated scf accuracy    <       0.01233923 Ry

     iteration # 37     ecut=    30.00 Ry     beta= 0.70
     Davidson diagonalization with overlap
     ethr =  2.88E-06,  avg # of iterations =  3.0

     total cpu time spent up to now is       12.4 secs

     total energy              =    -302.38180304 Ry
     Harris-Foulkes estimate   =    -302.38239536 Ry
     estimated scf accuracy    <       0.00427710 Ry

     iteration # 38     ecut=    30.00 Ry     beta= 0.70
     Davidson diagonalization with overlap
     ethr =  2.88E-06,  avg # of iterations =  2.9

     total cpu time spent up to now is       12.7 secs

     total energy              =    -302.38395697 Ry
     Harris-Foulkes estimate   =    -302.38419982 Ry
     estimated scf accuracy    <       0.00011769 Ry

     iteration # 39     ecut=    30.00 Ry     beta= 0.70
     Davidson diagonalization with overlap
     ethr =  5.12E-07,  avg # of iterations =  2.0

     total cpu time spent up to now is       12.9 secs

     total energy              =    -302.38415267 Ry
     Harris-Foulkes estimate   =    -302.38416724 Ry
     estimated scf accuracy    <       0.00012592 Ry

     iteration # 40     ecut=    30.00 Ry     beta= 0.70
     Davidson diagonalization with overlap
     ethr =  5.12E-07,  avg # of iterations =  1.0

     total cpu time spent up to now is       13.1 secs

     total energy              =    -302.38413100 Ry
     Harris-Foulkes estimate   =    -302.38415876 Ry
     estimated scf accuracy    <       0.00003541 Ry

     iteration # 41     ecut=    30.00 Ry     beta= 0.70
     Davidson diagonalization with overlap
     ethr =  1.54E-07,  avg # of iterations =  2.0

     total cpu time spent up to now is       13.4 secs

     total energy              =    -302.38410174 Ry
     Harris-Foulkes estimate   =    -302.38413984 Ry
     estimated scf accuracy    <       0.00004548 Ry

     iteration # 42     ecut=    30.00 Ry     beta= 0.70
     Davidson diagonalization with overlap
     ethr =  1.54E-07,  avg # of iterations =  1.4

     total cpu time spent up to now is       13.6 secs

     total energy              =    -302.38410988 Ry
     Harris-Foulkes estimate   =    -302.38410973 Ry
     estimated scf accuracy    <       0.00001870 Ry

     iteration # 43     ecut=    30.00 Ry     beta= 0.70
     Davidson diagonalization with overlap
     ethr =  8.13E-08,  avg # of iterations =  1.0

     total cpu time spent up to now is       13.7 secs

     total energy              =    -302.38411774 Ry
     Harris-Foulkes estimate   =    -302.38410995 Ry
     estimated scf accuracy    <       0.00002112 Ry

     iteration # 44     ecut=    30.00 Ry     beta= 0.70
     Davidson diagonalization with overlap
     ethr =  8.13E-08,  avg # of iterations =  1.0

     total cpu time spent up to now is       13.9 secs

     total energy              =    -302.38411189 Ry
     Harris-Foulkes estimate   =    -302.38411832 Ry
     estimated scf accuracy    <       0.00002226 Ry

     iteration # 45     ecut=    30.00 Ry     beta= 0.70
     Davidson diagonalization with overlap
     ethr =  8.13E-08,  avg # of iterations =  1.0

     total cpu time spent up to now is       14.1 secs

     total energy              =    -302.38410165 Ry
     Harris-Foulkes estimate   =    -302.38411217 Ry
     estimated scf accuracy    <       0.00002279 Ry

     iteration # 46     ecut=    30.00 Ry     beta= 0.70
     Davidson diagonalization with overlap
     ethr =  8.13E-08,  avg # of iterations =  2.6

     total cpu time spent up to now is       14.4 secs

     End of self-consistent calculation

          k = 0.0000 0.0000 0.0000 (   701 PWs)   bands (ev):

   -23.8715  -5.3978  -5.3978  -5.3978   5.8719   8.6132   9.6907   9.6907
     9.6907  10.6432  10.6432  10.6432  12.9992  14.7405  14.7405  14.7405

          k =-0.2500 0.2500-0.2500 (   691 PWs)   bands (ev):

   -23.8116  -5.9166  -5.4508  -5.4508   6.9735   8.5649   9.7827  10.4250
    10.4250  10.7642  10.7642  10.9687  11.1028  15.1728  15.1728  17.5142

          k = 0.5000-0.5000 0.5000 (   700 PWs)   bands (ev):

   -23.7602  -6.3912  -5.5098  -5.5098   7.3391   8.6129   9.5464   9.5464
     9.6432  10.4256  10.4256  10.9364  11.3576  14.7799  14.7799  18.0280

          k = 0.0000 0.5000 0.0000 (   681 PWs)   bands (ev):

   -23.7888  -5.9150  -5.5481  -5.5481   7.5765   8.4601  10.2900  10.2900
    10.3628  10.9074  11.3899  11.5486  11.5486  14.5056  16.2437  16.2437

          k = 0.7500-0.2500 0.7500 (   697 PWs)   bands (ev):

   -23.7417  -6.2341  -5.7844  -5.6096   8.1284   8.8326   9.5399   9.6623
     9.9192  10.0969  10.1427  10.7315  10.9128  13.0390  16.3572  18.6451

          k = 0.5000 0.0000 0.5000 (   688 PWs)   bands (ev):

   -23.7551  -6.1134  -5.8094  -5.5076   8.1587   8.5629   9.9103  10.1307
    10.1420  10.4992  10.7114  10.7551  11.5047  13.8686  16.1281  16.9513

          k = 0.0000-1.0000 0.0000 (   692 PWs)   bands (ev):

   -23.7211  -6.3826  -5.6997  -5.6997   7.8840   9.2408   9.8898   9.8898
    10.3024  10.5299  10.8145  10.8681  10.8681  11.4672  20.8950  20.8951

          k =-0.5000-1.0000 0.0000 (   700 PWs)   bands (ev):

   -23.7253  -6.0599  -6.0599  -5.7199   8.6451   8.6451   9.0632   9.8241
     9.8241  10.0840  10.0840  10.2102  10.6925  12.5919  16.1568  19.4540

     the Fermi energy is    10.8277 ev

!    total energy              =    -302.38418228 Ry
     Harris-Foulkes estimate   =    -302.38418204 Ry
     estimated scf accuracy    <       0.00000135 Ry

     The total energy is the sum of the following terms:

     one-electron contribution =    -142.96600424 Ry
     hartree contribution      =      94.88737179 Ry
     xc contribution           =     -44.23499124 Ry
     ewald contribution        =    -210.06359864 Ry
     smearing contrib. (-TS)   =      -0.00695995 Ry

     convergence has been achieved in  46 iterations

     Forces acting on atoms (cartesian axes, Ry/au):

     atom    1 type  1   force =    -0.00000000    0.00000000    0.00000000
     atom    2 type  2   force =    -0.00000000    0.00000000   -0.00000000
     atom    3 type  2   force =     0.00000000   -0.00000000    0.00000000

     Total force =     0.000000     Total SCF correction =     0.000000


     Computing stress (Cartesian axis) and pressure

          total   stress  (Ry/bohr**3)                   (kbar)     P=********
  -0.09532775  -0.00000000   0.00000000     -14023.19     -0.00      0.00
  -0.00000000  -0.09532775   0.00000000         -0.00 -14023.19      0.00
   0.00000000  -0.00000000  -0.09532775          0.00     -0.00 -14023.19


     BFGS Geometry Optimization

     number of scf cycles    =   1
     number of bfgs steps    =   0

     enthalpy new            =    -302.3841822828 Ry

     new trust radius        =       0.5000000000 bohr
     new conv_thr            =       0.0000100000 Ry

     new unit-cell volume =    149.17638 a.u.^3 (    22.10566 Ang^3 )
     density =     10.59754 g/cm^3

CELL_PARAMETERS (alat= 10.00000000)
  -0.420943058   0.000000000   0.420943058
  -0.000000000   0.420943058   0.420943058
  -0.420943058   0.420943058  -0.000000000

ATOMIC_POSITIONS (alat)
La      -0.000000000   0.000000000   0.000000000    0   0   0
H        0.210471529   0.210471529   0.210471529
H        0.210471529   0.631414586   0.210471529



     Writing output data file LaH2.save/
     NEW-OLD atomic charge density approx. for the potential

     Check: negative core charge=   -0.000010

     negative rho (up, down):  2.369E+00 0.000E+00
     extrapolated charge    7.46081, renormalised to   23.00000

     total cpu time spent up to now is       15.4 secs

     Self-consistent Calculation

     iteration #  1     ecut=    30.00 Ry     beta= 0.70
     Davidson diagonalization with overlap
     ethr =  1.00E-06,  avg # of iterations =  8.8

     negative rho (up, down):  3.853E-02 0.000E+00

     total cpu time spent up to now is       16.0 secs

     total energy              =    -169.16892036 Ry
     Harris-Foulkes estimate   =    -569.26494685 Ry
     estimated scf accuracy    <     524.63466007 Ry

     iteration #  2     ecut=    30.00 Ry     beta= 0.70
     Davidson diagonalization with overlap
     ethr =  1.00E-02,  avg # of iterations =  6.5

     total cpu time spent up to now is       16.5 secs

     total energy              =    -285.10855822 Ry
     Harris-Foulkes estimate   =    -446.69020402 Ry
     estimated scf accuracy    <     260.99344202 Ry

     iteration #  3     ecut=    30.00 Ry     beta= 0.70
     Davidson diagonalization with overlap
     ethr =  1.00E-02,  avg # of iterations =  5.9

     total cpu time spent up to now is       16.9 secs

     total energy              =    -343.12223128 Ry
     Harris-Foulkes estimate   =    -352.64681394 Ry
     estimated scf accuracy    <      19.88523226 Ry

     iteration #  4     ecut=    30.00 Ry     beta= 0.70
     Davidson diagonalization with overlap
     ethr =  1.00E-02,  avg # of iterations =  3.0

     total cpu time spent up to now is       17.2 secs

     total energy              =    -347.04696936 Ry
     Harris-Foulkes estimate   =    -348.07164542 Ry
     estimated scf accuracy    <       1.94522976 Ry

     iteration #  5     ecut=    30.00 Ry     beta= 0.70
     Davidson diagonalization with overlap
     ethr =  8.46E-03,  avg # of iterations =  2.0

     total cpu time spent up to now is       17.5 secs

     total energy              =    -347.22706302 Ry
     Harris-Foulkes estimate   =    -347.27308674 Ry
     estimated scf accuracy    <       0.09324714 Ry

     iteration #  6     ecut=    30.00 Ry     beta= 0.70
     Davidson diagonalization with overlap
     ethr =  4.05E-04,  avg # of iterations =  3.8

     total cpu time spent up to now is       17.8 secs

     total energy              =    -347.23029825 Ry
     Harris-Foulkes estimate   =    -347.30347000 Ry
     estimated scf accuracy    <       0.12067142 Ry

     iteration #  7     ecut=    30.00 Ry     beta= 0.70
     Davidson diagonalization with overlap
     ethr =  4.05E-04,  avg # of iterations =  3.0

     total cpu time spent up to now is       18.1 secs

     total energy              =    -347.26494857 Ry
     Harris-Foulkes estimate   =    -347.26924195 Ry
     estimated scf accuracy    <       0.00746168 Ry

     iteration #  8     ecut=    30.00 Ry     beta= 0.70
     Davidson diagonalization with overlap
     ethr =  3.24E-05,  avg # of iterations =  3.8

     total cpu time spent up to now is       18.3 secs

     total energy              =    -347.26690526 Ry
     Harris-Foulkes estimate   =    -347.26696464 Ry
     estimated scf accuracy    <       0.00023765 Ry

     iteration #  9     ecut=    30.00 Ry     beta= 0.70
     Davidson diagonalization with overlap
     ethr =  1.03E-06,  avg # of iterations =  4.1

     total cpu time spent up to now is       18.6 secs

     total energy              =    -347.26687073 Ry
     Harris-Foulkes estimate   =    -347.26696782 Ry
     estimated scf accuracy    <       0.00021622 Ry

     iteration # 10     ecut=    30.00 Ry     beta= 0.70
     Davidson diagonalization with overlap
     ethr =  9.40E-07,  avg # of iterations =  3.2

     total cpu time spent up to now is       18.9 secs

     total energy              =    -347.38328031 Ry
     Harris-Foulkes estimate   =    -347.38328486 Ry
     estimated scf accuracy    <       0.00038645 Ry

     iteration # 11     ecut=    30.00 Ry     beta= 0.70
     Davidson diagonalization with overlap
     ethr =  9.40E-07,  avg # of iterations =  1.6

     total cpu time spent up to now is       19.1 secs

     total energy              =    -347.71227024 Ry
     Harris-Foulkes estimate   =    -347.71224831 Ry
     estimated scf accuracy    <       0.00542900 Ry

     iteration # 12     ecut=    30.00 Ry     beta= 0.70
     Davidson diagonalization with overlap
     ethr =  9.40E-07,  avg # of iterations =  1.0

     total cpu time spent up to now is       19.3 secs

     total energy              =    -347.71224055 Ry
     Harris-Foulkes estimate   =    -347.71227062 Ry
     estimated scf accuracy    <       0.00547130 Ry

     iteration # 13     ecut=    30.00 Ry     beta= 0.70
     Davidson diagonalization with overlap
     ethr =  9.40E-07,  avg # of iterations =  1.0

     total cpu time spent up to now is       19.5 secs

     total energy              =    -347.71221937 Ry
     Harris-Foulkes estimate   =    -347.71224087 Ry
     estimated scf accuracy    <       0.00540770 Ry

     iteration # 14     ecut=    30.00 Ry     beta= 0.70
     Davidson diagonalization with overlap
     ethr =  9.40E-07,  avg # of iterations =  1.0

     total cpu time spent up to now is       19.7 secs

     total energy              =    -347.71221548 Ry
     Harris-Foulkes estimate   =    -347.71221963 Ry
     estimated scf accuracy    <       0.00535622 Ry

     iteration # 15     ecut=    30.00 Ry     beta= 0.70
     Davidson diagonalization with overlap
     ethr =  9.40E-07,  avg # of iterations =  1.8

     total cpu time spent up to now is       19.9 secs

     total energy              =    -348.04430524 Ry
     Harris-Foulkes estimate   =    -348.04430488 Ry
     estimated scf accuracy    <       0.01856370 Ry

     iteration # 16     ecut=    30.00 Ry     beta= 0.70
     Davidson diagonalization with overlap
     ethr =  9.40E-07,  avg # of iterations =  1.0

     total cpu time spent up to now is       20.1 secs

     total energy              =    -348.04429955 Ry
     Harris-Foulkes estimate   =    -348.04430533 Ry
     estimated scf accuracy    <       0.01855254 Ry

     iteration # 17     ecut=    30.00 Ry     beta= 0.70
     Davidson diagonalization with overlap
     ethr =  9.40E-07,  avg # of iterations =  1.0

     total cpu time spent up to now is       20.3 secs

     total energy              =    -348.04438138 Ry
     Harris-Foulkes estimate   =    -348.04429962 Ry
     estimated scf accuracy    <       0.01852057 Ry

     iteration # 18     ecut=    30.00 Ry     beta= 0.70
     Davidson diagonalization with overlap
     ethr =  9.40E-07,  avg # of iterations =  1.0

     total cpu time spent up to now is       20.5 secs

     total energy              =    -348.04509612 Ry
     Harris-Foulkes estimate   =    -348.04438150 Ry
     estimated scf accuracy    <       0.01869677 Ry

     iteration # 19     ecut=    30.00 Ry     beta= 0.70
     Davidson diagonalization with overlap
     ethr =  9.40E-07,  avg # of iterations =  1.6

     total cpu time spent up to now is       20.7 secs

     total energy              =    -348.02987327 Ry
     Harris-Foulkes estimate   =    -348.04510483 Ry
     estimated scf accuracy    <       0.02042946 Ry

     iteration # 20     ecut=    30.00 Ry     beta= 0.70
     Davidson diagonalization with overlap
     ethr =  9.40E-07,  avg # of iterations =  4.4

     total cpu time spent up to now is       21.1 secs

     total energy              =    -348.03647563 Ry
     Harris-Foulkes estimate   =    -348.03707516 Ry
     estimated scf accuracy    <       0.00492421 Ry

     iteration # 21     ecut=    30.00 Ry     beta= 0.70
     Davidson diagonalization with overlap
     ethr =  9.40E-07,  avg # of iterations =  4.1

     total cpu time spent up to now is       21.4 secs

     total energy              =    -348.03513196 Ry
     Harris-Foulkes estimate   =    -348.03703549 Ry
     estimated scf accuracy    <       0.00085715 Ry

     iteration # 22     ecut=    30.00 Ry     beta= 0.70
     Davidson diagonalization with overlap
     ethr =  9.40E-07,  avg # of iterations =  5.0

     total cpu time spent up to now is       21.7 secs

     total energy              =    -348.03628164 Ry
     Harris-Foulkes estimate   =    -348.03609891 Ry
     estimated scf accuracy    <       0.00719264 Ry

     iteration # 23     ecut=    30.00 Ry     beta= 0.70
     Davidson diagonalization with overlap
     ethr =  9.40E-07,  avg # of iterations =  4.4

     total cpu time spent up to now is       22.1 secs

     total energy              =    -348.03699882 Ry
     Harris-Foulkes estimate   =    -348.03734583 Ry
     estimated scf accuracy    <       0.00070023 Ry

     iteration # 24     ecut=    30.00 Ry     beta= 0.70
     Davidson diagonalization with overlap
     ethr =  9.40E-07,  avg # of iterations =  3.4

     total cpu time spent up to now is       22.4 secs

     total energy              =    -348.03705153 Ry
     Harris-Foulkes estimate   =    -348.03707663 Ry
     estimated scf accuracy    <       0.00008688 Ry

     iteration # 25     ecut=    30.00 Ry     beta= 0.70
     Davidson diagonalization with overlap
     ethr =  3.78E-07,  avg # of iterations =  3.4

     total cpu time spent up to now is       22.6 secs

     total energy              =    -348.14855887 Ry
     Harris-Foulkes estimate   =    -348.14786898 Ry
     estimated scf accuracy    <       0.00047912 Ry

     iteration # 26     ecut=    30.00 Ry     beta= 0.70
     Davidson diagonalization with overlap
     ethr =  3.78E-07,  avg # of iterations =  3.5

     total cpu time spent up to now is       22.9 secs

     total energy              =    -348.14754952 Ry
     Harris-Foulkes estimate   =    -348.14874017 Ry
     estimated scf accuracy    <       0.00263221 Ry

     iteration # 27     ecut=    30.00 Ry     beta= 0.70
     Davidson diagonalization with overlap
     ethr =  3.78E-07,  avg # of iterations =  3.6

     total cpu time spent up to now is       23.3 secs

     total energy              =    -348.14763149 Ry
     Harris-Foulkes estimate   =    -348.14779129 Ry
     estimated scf accuracy    <       0.00029675 Ry

     iteration # 28     ecut=    30.00 Ry     beta= 0.70
     Davidson diagonalization with overlap
     ethr =  3.78E-07,  avg # of iterations =  2.9

     total cpu time spent up to now is       23.5 secs

     End of self-consistent calculation

          k = 0.0000 0.0000 0.0000 (   701 PWs)   bands (ev):

   -25.6999 -25.6999 -24.8392 -24.8392 -24.8392 -10.4531   9.0763   9.0763
     9.0763  17.3565  18.4421  23.8250  23.8250  25.4679  25.4679  25.4679

          k =-0.2970 0.2970-0.2970 (   691 PWs)   bands (ev):

   -26.4548 -23.1238 -23.1238 -21.1895 -21.1895  -9.8139   5.6343   8.6970
     8.6970  16.4648  20.4606  24.2359  24.2359  24.9640  25.5441  25.5441

          k = 0.5939-0.5939 0.5939 (   700 PWs)   bands (ev):

   -27.9318 -27.9318 -25.1476 -22.6526 -22.6526  -9.0274   3.0299   8.3557
     8.3557  15.4682  21.5914  23.7978  25.6490  25.6490  25.8940  26.9233

          k = 0.0000 0.5939 0.0000 (   681 PWs)   bands (ev):

   -22.7188 -20.9458 -20.8039 -19.7910 -19.7910  -9.5954   5.6890   7.9713
     7.9713  15.9217  21.1201  22.3425  25.5565  25.5565  26.2690  26.2690

          k = 0.8909-0.2970 0.8909 (   697 PWs)   bands (ev):

   -27.4027 -25.9426 -25.0318 -23.8645 -22.2229  -8.7914   3.8004   6.2049
     7.6633  16.7523  21.0424  22.2451  25.4292  25.6692  25.8792  26.4878

          k = 0.5939 0.0000 0.5939 (   688 PWs)   bands (ev):

   -24.0151 -23.6805 -23.5997 -21.9491 -19.8563  -9.0657   4.5173   5.9273
     8.3317  18.6180  18.9229  24.0404  25.0433  25.1228  25.8302  26.5233

          k =-0.0000-1.1878-0.0000 (   692 PWs)   bands (ev):

   -27.1066 -24.5749 -24.5749 -22.8581 -19.3505  -8.5161   3.1044   7.0709
     7.0709  14.4708  19.2067  24.0195  25.8364  26.1352  26.1353  26.7494

          k =-0.5939-1.1878 0.0000 (   700 PWs)   bands (ev):

   -28.3663 -25.3551 -25.3038 -25.3038 -24.5046  -8.5035   4.5920   4.5920
     6.7825  19.4294  19.4294  21.8654  24.5805  25.9112  25.9112  26.4779

     the Fermi energy is    22.3804 ev

!    total energy              =    -348.14766379 Ry
     Harris-Foulkes estimate   =    -348.14767253 Ry
     estimated scf accuracy    <       0.00000986 Ry

     The total energy is the sum of the following terms:

     one-electron contribution =    -138.52359455 Ry
     hartree contribution      =      87.91541495 Ry
     xc contribution           =     -48.02275018 Ry
     ewald contribution        =    -249.51545689 Ry
     smearing contrib. (-TS)   =      -0.00127711 Ry

     convergence has been achieved in  28 iterations

     Forces acting on atoms (cartesian axes, Ry/au):

     atom    1 type  1   force =    -0.00000000   -0.00000000   -0.00000000
     atom    2 type  2   force =    -0.00000000   -0.00000000   -0.00000000
     atom    3 type  2   force =     0.00000000    0.00000000    0.00000000

     Total force =     0.000000     Total SCF correction =     0.000000


     Computing stress (Cartesian axis) and pressure

          total   stress  (Ry/bohr**3)                   (kbar)     P=********
  -0.79592405  -0.00000000   0.00000000    -117084.45     -0.00      0.00
  -0.00000000  -0.79592405   0.00000000         -0.00-117084.45      0.00
   0.00000000   0.00000000  -0.79592405          0.00      0.00-117084.45


     number of scf cycles    =   2
     number of bfgs steps    =   1

     enthalpy old            =    -302.3841822828 Ry
     enthalpy new            =    -348.1476637880 Ry

     CASE: enthalpy_new < enthalpy_old


     WARNING: bfgs curvature condition failed, Theta= 0.011
     new trust radius        =       0.6881576417 bohr
     new conv_thr            =       0.0000001000 Ry

     new unit-cell volume =     55.28316 a.u.^3 (     8.19212 Ang^3 )
     density =     28.59645 g/cm^3

CELL_PARAMETERS (alat= 10.00000000)
  -0.302357644   0.000000000   0.302357644
  -0.000000000   0.302357644   0.302357644
  -0.302357644   0.302357644   0.000000000

ATOMIC_POSITIONS (alat)
La      -0.000000000   0.000000000   0.000000000    0   0   0
H        0.151178822   0.151178822   0.151178822
H        0.151178822   0.453536466   0.151178822



     Writing output data file LaH2.save/
     NEW-OLD atomic charge density approx. for the potential

     negative rho (up, down):  1.613E+01 0.000E+00

     total cpu time spent up to now is       24.5 secs

     Self-consistent Calculation

     iteration #  1     ecut=    30.00 Ry     beta= 0.70
     Davidson diagonalization with overlap
     ethr =  1.00E-06,  avg # of iterations =  9.9

     negative rho (up, down):  1.754E+00 0.000E+00

     total cpu time spent up to now is       25.2 secs

     WARNING: integrated charge=    11.28536202, expected=    23.00000000

 %%%%%%%%%%%%%%%%%%%%%%%%%%%%%%%%%%%%%%%%%%%%%%%%%%%%%%%%%%%%%%%%%%%%%%%%%%%%%%
     Error in routine electrons (1):
     charge is wrong
 %%%%%%%%%%%%%%%%%%%%%%%%%%%%%%%%%%%%%%%%%%%%%%%%%%%%%%%%%%%%%%%%%%%%%%%%%%%%%%

     stopping ...
