
     Program PWSCF v.6.4.1 starts on 13Dec2019 at  3:32:14 

     This program is part of the open-source Quantum ESPRESSO suite
     for quantum simulation of materials; please cite
         "P. Giannozzi et al., J. Phys.:Condens. Matter 21 395502 (2009);
         "P. Giannozzi et al., J. Phys.:Condens. Matter 29 465901 (2017);
          URL http://www.quantum-espresso.org", 
     in publications or presentations arising from this work. More details at
     http://www.quantum-espresso.org/quote

     Parallel version (MPI), running on     4 processors

     MPI processes distributed on     1 nodes
     R & G space division:  proc/nbgrp/npool/nimage =       4
     Reading input from LaH3.bands.in

     Current dimensions of program PWSCF are:
     Max number of different atomic species (ntypx) = 10
     Max number of k-points (npk) =  40000
     Max angular momentum in pseudopotentials (lmaxx) =  3

     Atomic positions and unit cell read from directory:
     ./outdir/LaH3.save/

               file La.pbe-spdfn-kjpaw_psl.1.0.0.UPF: wavefunction(s)  5S 5D 4F renormalized
               file H.pbe-kjpaw_psl.1.0.0.UPF: wavefunction(s)  1S renormalized

     Subspace diagonalization in iterative solution of the eigenvalue problem:
     a serial algorithm will be used


     Parallelization info
     --------------------
     sticks:   dense  smooth     PW     G-vecs:    dense   smooth      PW
     Min         153     153     46                 2519     2519     420
     Max         154     154     47                 2521     2521     423
     Sum         613     613    187                10081    10081    1687



     bravais-lattice index     =            2
     lattice parameter (alat)  =      10.5964  a.u.
     unit-cell volume          =     297.4507 (a.u.)^3
     number of atoms/cell      =            3
     number of atomic types    =            2
     number of electrons       =        23.00
     number of Kohn-Sham states=           23
     kinetic-energy cutoff     =      40.0000  Ry
     charge density cutoff     =     160.0000  Ry
     Exchange-correlation      = SLA PW PBX PBC ( 1  4  3  4 0 0)

     celldm(1)=  10.596400  celldm(2)=   0.000000  celldm(3)=   0.000000
     celldm(4)=   0.000000  celldm(5)=   0.000000  celldm(6)=   0.000000

     crystal axes: (cart. coord. in units of alat)
               a(1) = (  -0.500000   0.000000   0.500000 )  
               a(2) = (   0.000000   0.500000   0.500000 )  
               a(3) = (  -0.500000   0.500000   0.000000 )  

     reciprocal axes: (cart. coord. in units 2 pi/alat)
               b(1) = ( -1.000000 -1.000000  1.000000 )  
               b(2) = (  1.000000  1.000000  1.000000 )  
               b(3) = ( -1.000000  1.000000 -1.000000 )  


     PseudoPot. # 1 for La read from file:
     /home/adikshith/qe-6.4.1/pslibrary.1.0.0/pbe/PSEUDOPOTENTIALS/La.pbe-spdfn-kjpaw_psl.1.0.0.UPF
     MD5 check sum: 3747aec63d80ccb36968eb19fc24dca3
     Pseudo is Projector augmented-wave + core cor, Zval = 21.0
     Generated using "atomic" code by A. Dal Corso v.6.4.1
     Shape of augmentation charge: PSQ
     Using radial grid of 1253 points,  8 beta functions with: 
                l(1) =   0
                l(2) =   0
                l(3) =   1
                l(4) =   1
                l(5) =   2
                l(6) =   2
                l(7) =   3
                l(8) =   3
     Q(r) pseudized with 0 coefficients 


     PseudoPot. # 2 for H  read from file:
     /home/adikshith/qe-6.4.1/pslibrary.1.0.0/pbe/PSEUDOPOTENTIALS/H.pbe-kjpaw_psl.1.0.0.UPF
     MD5 check sum: 81a5eec05d55ab684748a061e1c5c84a
     Pseudo is Projector augmented-wave, Zval =  1.0
     Generated using "atomic" code by A. Dal Corso v.6.4.1
     Shape of augmentation charge: PSQ
     Using radial grid of  929 points,  2 beta functions with: 
                l(1) =   0
                l(2) =   0
     Q(r) pseudized with 0 coefficients 


     atomic species   valence    mass     pseudopotential
        La            21.00    57.07800     La( 1.00)
        H              1.00     1.00000     H ( 1.00)

     24 Sym. Ops. (no inversion) found


                                    s                        frac. trans.

      isym =  1     identity                                     

 cryst.   s( 1) = (     1          0          0      )
                  (     0          1          0      )
                  (     0          0          1      )

 cart.    s( 1) = (  1.0000000  0.0000000  0.0000000 )
                  (  0.0000000  1.0000000  0.0000000 )
                  (  0.0000000  0.0000000  1.0000000 )


      isym =  2     180 deg rotation - cart. axis [0,0,1]        

 cryst.   s( 2) = (     0          1         -1      )
                  (     1          0         -1      )
                  (     0          0         -1      )

 cart.    s( 2) = ( -1.0000000  0.0000000  0.0000000 )
                  (  0.0000000 -1.0000000  0.0000000 )
                  (  0.0000000  0.0000000  1.0000000 )


      isym =  3     180 deg rotation - cart. axis [0,1,0]        

 cryst.   s( 3) = (    -1          0          0      )
                  (    -1          0          1      )
                  (    -1          1          0      )

 cart.    s( 3) = ( -1.0000000  0.0000000  0.0000000 )
                  (  0.0000000  1.0000000  0.0000000 )
                  (  0.0000000  0.0000000 -1.0000000 )


      isym =  4     180 deg rotation - cart. axis [1,0,0]        

 cryst.   s( 4) = (     0         -1          1      )
                  (     0         -1          0      )
                  (     1         -1          0      )

 cart.    s( 4) = (  1.0000000  0.0000000  0.0000000 )
                  (  0.0000000 -1.0000000  0.0000000 )
                  (  0.0000000  0.0000000 -1.0000000 )


      isym =  5     120 deg rotation - cart. axis [-1,-1,-1]     

 cryst.   s( 5) = (    -1          0          1      )
                  (    -1          1          0      )
                  (    -1          0          0      )

 cart.    s( 5) = (  0.0000000  1.0000000  0.0000000 )
                  (  0.0000000  0.0000000  1.0000000 )
                  (  1.0000000  0.0000000  0.0000000 )


      isym =  6     120 deg rotation - cart. axis [-1,1,1]       

 cryst.   s( 6) = (     0          1          0      )
                  (     0          0          1      )
                  (     1          0          0      )

 cart.    s( 6) = (  0.0000000 -1.0000000  0.0000000 )
                  (  0.0000000  0.0000000  1.0000000 )
                  ( -1.0000000  0.0000000  0.0000000 )


      isym =  7     120 deg rotation - cart. axis [1,1,-1]       

 cryst.   s( 7) = (     1          0         -1      )
                  (     0          0         -1      )
                  (     0          1         -1      )

 cart.    s( 7) = (  0.0000000  1.0000000  0.0000000 )
                  (  0.0000000  0.0000000 -1.0000000 )
                  ( -1.0000000  0.0000000  0.0000000 )


      isym =  8     120 deg rotation - cart. axis [1,-1,1]       

 cryst.   s( 8) = (     0         -1          0      )
                  (     1         -1          0      )
                  (     0         -1          1      )

 cart.    s( 8) = (  0.0000000 -1.0000000  0.0000000 )
                  (  0.0000000  0.0000000 -1.0000000 )
                  (  1.0000000  0.0000000  0.0000000 )


      isym =  9     120 deg rotation - cart. axis [1,1,1]        

 cryst.   s( 9) = (     0          0         -1      )
                  (     0          1         -1      )
                  (     1          0         -1      )

 cart.    s( 9) = (  0.0000000  0.0000000  1.0000000 )
                  (  1.0000000  0.0000000  0.0000000 )
                  (  0.0000000  1.0000000  0.0000000 )


      isym = 10     120 deg rotation - cart. axis [-1,1,-1]      

 cryst.   s(10) = (    -1          1          0      )
                  (    -1          0          0      )
                  (    -1          0          1      )

 cart.    s(10) = (  0.0000000  0.0000000  1.0000000 )
                  ( -1.0000000  0.0000000  0.0000000 )
                  (  0.0000000 -1.0000000  0.0000000 )


      isym = 11     120 deg rotation - cart. axis [1,-1,-1]      

 cryst.   s(11) = (     0          0          1      )
                  (     1          0          0      )
                  (     0          1          0      )

 cart.    s(11) = (  0.0000000  0.0000000 -1.0000000 )
                  ( -1.0000000  0.0000000  0.0000000 )
                  (  0.0000000  1.0000000  0.0000000 )


      isym = 12     120 deg rotation - cart. axis [-1,-1,1]      

 cryst.   s(12) = (     1         -1          0      )
                  (     0         -1          1      )
                  (     0         -1          0      )

 cart.    s(12) = (  0.0000000  0.0000000 -1.0000000 )
                  (  1.0000000  0.0000000  0.0000000 )
                  (  0.0000000 -1.0000000  0.0000000 )


      isym = 13     inv. 180 deg rotation - cart. axis [1,1,0]   

 cryst.   s(13) = (     0          1          0      )
                  (     1          0          0      )
                  (     0          0          1      )

 cart.    s(13) = (  0.0000000 -1.0000000  0.0000000 )
                  ( -1.0000000  0.0000000  0.0000000 )
                  (  0.0000000  0.0000000  1.0000000 )


      isym = 14     inv. 180 deg rotation - cart. axis [1,-1,0]  

 cryst.   s(14) = (     1          0         -1      )
                  (     0          1         -1      )
                  (     0          0         -1      )

 cart.    s(14) = (  0.0000000  1.0000000  0.0000000 )
                  (  1.0000000  0.0000000  0.0000000 )
                  (  0.0000000  0.0000000  1.0000000 )


      isym = 15     inv.  90 deg rotation - cart. axis [0,0,-1]  

 cryst.   s(15) = (     0         -1          0      )
                  (     0         -1          1      )
                  (     1         -1          0      )

 cart.    s(15) = (  0.0000000 -1.0000000  0.0000000 )
                  (  1.0000000  0.0000000  0.0000000 )
                  (  0.0000000  0.0000000 -1.0000000 )


      isym = 16     inv.  90 deg rotation - cart. axis [0,0,1]   

 cryst.   s(16) = (    -1          0          1      )
                  (    -1          0          0      )
                  (    -1          1          0      )

 cart.    s(16) = (  0.0000000  1.0000000  0.0000000 )
                  ( -1.0000000  0.0000000  0.0000000 )
                  (  0.0000000  0.0000000 -1.0000000 )


      isym = 17     inv. 180 deg rotation - cart. axis [1,0,1]   

 cryst.   s(17) = (     1          0          0      )
                  (     0          0          1      )
                  (     0          1          0      )

 cart.    s(17) = (  0.0000000  0.0000000 -1.0000000 )
                  (  0.0000000  1.0000000  0.0000000 )
                  ( -1.0000000  0.0000000  0.0000000 )


      isym = 18     inv. 180 deg rotation - cart. axis [-1,0,1]  

 cryst.   s(18) = (    -1          0          0      )
                  (    -1          1          0      )
                  (    -1          0          1      )

 cart.    s(18) = (  0.0000000  0.0000000  1.0000000 )
                  (  0.0000000  1.0000000  0.0000000 )
                  (  1.0000000  0.0000000  0.0000000 )


      isym = 19     inv.  90 deg rotation - cart. axis [0,1,0]   

 cryst.   s(19) = (     0         -1          1      )
                  (     1         -1          0      )
                  (     0         -1          0      )

 cart.    s(19) = (  0.0000000  0.0000000 -1.0000000 )
                  (  0.0000000 -1.0000000  0.0000000 )
                  (  1.0000000  0.0000000  0.0000000 )


      isym = 20     inv.  90 deg rotation - cart. axis [0,-1,0]  

 cryst.   s(20) = (     0          1         -1      )
                  (     0          0         -1      )
                  (     1          0         -1      )

 cart.    s(20) = (  0.0000000  0.0000000  1.0000000 )
                  (  0.0000000 -1.0000000  0.0000000 )
                  ( -1.0000000  0.0000000  0.0000000 )


      isym = 21     inv. 180 deg rotation - cart. axis [0,1,1]   

 cryst.   s(21) = (     1         -1          0      )
                  (     0         -1          0      )
                  (     0         -1          1      )

 cart.    s(21) = (  1.0000000  0.0000000  0.0000000 )
                  (  0.0000000  0.0000000 -1.0000000 )
                  (  0.0000000 -1.0000000  0.0000000 )


      isym = 22     inv. 180 deg rotation - cart. axis [0,1,-1]  

 cryst.   s(22) = (     0          0          1      )
                  (     0          1          0      )
                  (     1          0          0      )

 cart.    s(22) = (  1.0000000  0.0000000  0.0000000 )
                  (  0.0000000  0.0000000  1.0000000 )
                  (  0.0000000  1.0000000  0.0000000 )


      isym = 23     inv.  90 deg rotation - cart. axis [-1,0,0]  

 cryst.   s(23) = (     0          0         -1      )
                  (     1          0         -1      )
                  (     0          1         -1      )

 cart.    s(23) = ( -1.0000000  0.0000000  0.0000000 )
                  (  0.0000000  0.0000000 -1.0000000 )
                  (  0.0000000  1.0000000  0.0000000 )


      isym = 24     inv.  90 deg rotation - cart. axis [1,0,0]   

 cryst.   s(24) = (    -1          1          0      )
                  (    -1          0          1      )
                  (    -1          0          0      )

 cart.    s(24) = ( -1.0000000  0.0000000  0.0000000 )
                  (  0.0000000  0.0000000  1.0000000 )
                  (  0.0000000 -1.0000000  0.0000000 )


     point group T_d (-43m) 
     there are  5 classes
     the character table:

       E     8C3   3C2   6S4   6s_d 
A_1    1.00  1.00  1.00  1.00  1.00
A_2    1.00  1.00  1.00 -1.00 -1.00
E      2.00 -1.00  2.00  0.00  0.00
T_1    3.00  0.00 -1.00  1.00 -1.00
T_2    3.00  0.00 -1.00 -1.00  1.00

     the symmetry operations in each class and the name of the first element:

     E        1
          identity                                               
     8C3      5    7    8    6   12    9   10   11
          120 deg rotation - cart. axis [-1,-1,-1]               
     3C2      2    3    4
          180 deg rotation - cart. axis [0,0,1]                  
     6S4     15   16   20   19   23   24
          inv.  90 deg rotation - cart. axis [0,0,-1]            
     6s_d    13   14   17   18   21   22
          inv. 180 deg rotation - cart. axis [1,1,0]             

   Cartesian axes

     site n.     atom                  positions (alat units)
         1           La  tau(   1) = (   0.0000000   0.0000000   0.0000000  )
         2           H   tau(   2) = (   0.2500000   0.2500000   0.2500000  )
         3           H   tau(   3) = (   0.5000000   0.0000000   0.0000000  )

   Crystallographic axes

     site n.     atom                  positions (cryst. coord.)
         1           La  tau(   1) = (  0.0000000  0.0000000  0.0000000  )
         2           H   tau(   2) = ( -0.2500000  0.7500000 -0.2500000  )
         3           H   tau(   3) = ( -0.5000000  0.5000000 -0.5000000  )

     number of k points=   101
                       cart. coord. in units 2pi/alat
        k(    1) = (   0.0000000   0.0000000   1.0000000), wk =   0.0198020
        k(    2) = (   0.0000000   0.0000000   0.9500000), wk =   0.0198020
        k(    3) = (   0.0000000   0.0000000   0.9000000), wk =   0.0198020
        k(    4) = (   0.0000000   0.0000000   0.8500000), wk =   0.0198020
        k(    5) = (   0.0000000   0.0000000   0.8000000), wk =   0.0198020
        k(    6) = (   0.0000000   0.0000000   0.7500000), wk =   0.0198020
        k(    7) = (   0.0000000   0.0000000   0.7000000), wk =   0.0198020
        k(    8) = (   0.0000000   0.0000000   0.6500000), wk =   0.0198020
        k(    9) = (   0.0000000   0.0000000   0.6000000), wk =   0.0198020
        k(   10) = (   0.0000000   0.0000000   0.5500000), wk =   0.0198020
        k(   11) = (   0.0000000   0.0000000   0.5000000), wk =   0.0198020
        k(   12) = (   0.0000000   0.0000000   0.4500000), wk =   0.0198020
        k(   13) = (   0.0000000   0.0000000   0.4000000), wk =   0.0198020
        k(   14) = (   0.0000000   0.0000000   0.3500000), wk =   0.0198020
        k(   15) = (   0.0000000   0.0000000   0.3000000), wk =   0.0198020
        k(   16) = (   0.0000000   0.0000000   0.2500000), wk =   0.0198020
        k(   17) = (   0.0000000   0.0000000   0.2000000), wk =   0.0198020
        k(   18) = (   0.0000000   0.0000000   0.1500000), wk =   0.0198020
        k(   19) = (   0.0000000   0.0000000   0.1000000), wk =   0.0198020
        k(   20) = (   0.0000000   0.0000000   0.0500000), wk =   0.0198020
        k(   21) = (   0.0000000   0.0000000   0.0000000), wk =   0.0198020
        k(   22) = (   0.0250000   0.0250000   0.0250000), wk =   0.0198020
        k(   23) = (   0.0500000   0.0500000   0.0500000), wk =   0.0198020
        k(   24) = (   0.0750000   0.0750000   0.0750000), wk =   0.0198020
        k(   25) = (   0.1000000   0.1000000   0.1000000), wk =   0.0198020
        k(   26) = (   0.1250000   0.1250000   0.1250000), wk =   0.0198020
        k(   27) = (   0.1500000   0.1500000   0.1500000), wk =   0.0198020
        k(   28) = (   0.1750000   0.1750000   0.1750000), wk =   0.0198020
        k(   29) = (   0.2000000   0.2000000   0.2000000), wk =   0.0198020
        k(   30) = (   0.2250000   0.2250000   0.2250000), wk =   0.0198020
        k(   31) = (   0.2500000   0.2500000   0.2500000), wk =   0.0198020
        k(   32) = (   0.2750000   0.2750000   0.2750000), wk =   0.0198020
        k(   33) = (   0.3000000   0.3000000   0.3000000), wk =   0.0198020
        k(   34) = (   0.3250000   0.3250000   0.3250000), wk =   0.0198020
        k(   35) = (   0.3500000   0.3500000   0.3500000), wk =   0.0198020
        k(   36) = (   0.3750000   0.3750000   0.3750000), wk =   0.0198020
        k(   37) = (   0.4000000   0.4000000   0.4000000), wk =   0.0198020
        k(   38) = (   0.4250000   0.4250000   0.4250000), wk =   0.0198020
        k(   39) = (   0.4500000   0.4500000   0.4500000), wk =   0.0198020
        k(   40) = (   0.4750000   0.4750000   0.4750000), wk =   0.0198020
        k(   41) = (   0.5000000   0.5000000   0.5000000), wk =   0.0198020
        k(   42) = (   0.4750000   0.5000000   0.5250000), wk =   0.0198020
        k(   43) = (   0.4500000   0.5000000   0.5500000), wk =   0.0198020
        k(   44) = (   0.4250000   0.5000000   0.5750000), wk =   0.0198020
        k(   45) = (   0.4000000   0.5000000   0.6000000), wk =   0.0198020
        k(   46) = (   0.3750000   0.5000000   0.6250000), wk =   0.0198020
        k(   47) = (   0.3500000   0.5000000   0.6500000), wk =   0.0198020
        k(   48) = (   0.3250000   0.5000000   0.6750000), wk =   0.0198020
        k(   49) = (   0.3000000   0.5000000   0.7000000), wk =   0.0198020
        k(   50) = (   0.2750000   0.5000000   0.7250000), wk =   0.0198020
        k(   51) = (   0.2500000   0.5000000   0.7500000), wk =   0.0198020
        k(   52) = (   0.2250000   0.5000000   0.7750000), wk =   0.0198020
        k(   53) = (   0.2000000   0.5000000   0.8000000), wk =   0.0198020
        k(   54) = (   0.1750000   0.5000000   0.8250000), wk =   0.0198020
        k(   55) = (   0.1500000   0.5000000   0.8500000), wk =   0.0198020
        k(   56) = (   0.1250000   0.5000000   0.8750000), wk =   0.0198020
        k(   57) = (   0.1000000   0.5000000   0.9000000), wk =   0.0198020
        k(   58) = (   0.0750000   0.5000000   0.9250000), wk =   0.0198020
        k(   59) = (   0.0500000   0.5000000   0.9500000), wk =   0.0198020
        k(   60) = (   0.0250000   0.5000000   0.9750000), wk =   0.0198020
        k(   61) = (   0.0000000   0.5000000   1.0000000), wk =   0.0198020
        k(   62) = (   0.0000000   0.5250000   0.9750000), wk =   0.0198020
        k(   63) = (   0.0000000   0.5500000   0.9500000), wk =   0.0198020
        k(   64) = (   0.0000000   0.5750000   0.9250000), wk =   0.0198020
        k(   65) = (   0.0000000   0.6000000   0.9000000), wk =   0.0198020
        k(   66) = (   0.0000000   0.6250000   0.8750000), wk =   0.0198020
        k(   67) = (   0.0000000   0.6500000   0.8500000), wk =   0.0198020
        k(   68) = (   0.0000000   0.6750000   0.8250000), wk =   0.0198020
        k(   69) = (   0.0000000   0.7000000   0.8000000), wk =   0.0198020
        k(   70) = (   0.0000000   0.7250000   0.7750000), wk =   0.0198020
        k(   71) = (   0.0000000   0.7500000   0.7500000), wk =   0.0198020
        k(   72) = (   0.0000000   0.7250000   0.7250000), wk =   0.0198020
        k(   73) = (   0.0000000   0.7000000   0.7000000), wk =   0.0198020
        k(   74) = (   0.0000000   0.6750000   0.6750000), wk =   0.0198020
        k(   75) = (   0.0000000   0.6500000   0.6500000), wk =   0.0198020
        k(   76) = (   0.0000000   0.6250000   0.6250000), wk =   0.0198020
        k(   77) = (   0.0000000   0.6000000   0.6000000), wk =   0.0198020
        k(   78) = (   0.0000000   0.5750000   0.5750000), wk =   0.0198020
        k(   79) = (   0.0000000   0.5500000   0.5500000), wk =   0.0198020
        k(   80) = (   0.0000000   0.5250000   0.5250000), wk =   0.0198020
        k(   81) = (   0.0000000   0.5000000   0.5000000), wk =   0.0198020
        k(   82) = (   0.0000000   0.4750000   0.4750000), wk =   0.0198020
        k(   83) = (   0.0000000   0.4500000   0.4500000), wk =   0.0198020
        k(   84) = (   0.0000000   0.4250000   0.4250000), wk =   0.0198020
        k(   85) = (   0.0000000   0.4000000   0.4000000), wk =   0.0198020
        k(   86) = (   0.0000000   0.3750000   0.3750000), wk =   0.0198020
        k(   87) = (   0.0000000   0.3500000   0.3500000), wk =   0.0198020
        k(   88) = (   0.0000000   0.3250000   0.3250000), wk =   0.0198020
        k(   89) = (   0.0000000   0.3000000   0.3000000), wk =   0.0198020
        k(   90) = (   0.0000000   0.2750000   0.2750000), wk =   0.0198020
        k(   91) = (   0.0000000   0.2500000   0.2500000), wk =   0.0198020
        k(   92) = (   0.0000000   0.2250000   0.2250000), wk =   0.0198020
        k(   93) = (   0.0000000   0.2000000   0.2000000), wk =   0.0198020
        k(   94) = (   0.0000000   0.1750000   0.1750000), wk =   0.0198020
        k(   95) = (   0.0000000   0.1500000   0.1500000), wk =   0.0198020
        k(   96) = (   0.0000000   0.1250000   0.1250000), wk =   0.0198020
        k(   97) = (   0.0000000   0.1000000   0.1000000), wk =   0.0198020
        k(   98) = (   0.0000000   0.0750000   0.0750000), wk =   0.0198020
        k(   99) = (   0.0000000   0.0500000   0.0500000), wk =   0.0198020
        k(  100) = (   0.0000000   0.0250000   0.0250000), wk =   0.0198020
        k(  101) = (   0.0000000   0.0000000   0.0000000), wk =   0.0198020

                       cryst. coord.
        k(    1) = (   0.5000000   0.5000000   0.0000000), wk =   0.0198020
        k(    2) = (   0.4750000   0.4750000   0.0000000), wk =   0.0198020
        k(    3) = (   0.4500000   0.4500000   0.0000000), wk =   0.0198020
        k(    4) = (   0.4250000   0.4250000   0.0000000), wk =   0.0198020
        k(    5) = (   0.4000000   0.4000000   0.0000000), wk =   0.0198020
        k(    6) = (   0.3750000   0.3750000   0.0000000), wk =   0.0198020
        k(    7) = (   0.3500000   0.3500000   0.0000000), wk =   0.0198020
        k(    8) = (   0.3250000   0.3250000   0.0000000), wk =   0.0198020
        k(    9) = (   0.3000000   0.3000000   0.0000000), wk =   0.0198020
        k(   10) = (   0.2750000   0.2750000   0.0000000), wk =   0.0198020
        k(   11) = (   0.2500000   0.2500000   0.0000000), wk =   0.0198020
        k(   12) = (   0.2250000   0.2250000   0.0000000), wk =   0.0198020
        k(   13) = (   0.2000000   0.2000000   0.0000000), wk =   0.0198020
        k(   14) = (   0.1750000   0.1750000   0.0000000), wk =   0.0198020
        k(   15) = (   0.1500000   0.1500000   0.0000000), wk =   0.0198020
        k(   16) = (   0.1250000   0.1250000   0.0000000), wk =   0.0198020
        k(   17) = (   0.1000000   0.1000000   0.0000000), wk =   0.0198020
        k(   18) = (   0.0750000   0.0750000   0.0000000), wk =   0.0198020
        k(   19) = (   0.0500000   0.0500000   0.0000000), wk =   0.0198020
        k(   20) = (   0.0250000   0.0250000   0.0000000), wk =   0.0198020
        k(   21) = (   0.0000000   0.0000000   0.0000000), wk =   0.0198020
        k(   22) = (   0.0000000   0.0250000   0.0000000), wk =   0.0198020
        k(   23) = (   0.0000000   0.0500000   0.0000000), wk =   0.0198020
        k(   24) = (   0.0000000   0.0750000   0.0000000), wk =   0.0198020
        k(   25) = (   0.0000000   0.1000000   0.0000000), wk =   0.0198020
        k(   26) = (   0.0000000   0.1250000   0.0000000), wk =   0.0198020
        k(   27) = (   0.0000000   0.1500000   0.0000000), wk =   0.0198020
        k(   28) = (   0.0000000   0.1750000   0.0000000), wk =   0.0198020
        k(   29) = (   0.0000000   0.2000000   0.0000000), wk =   0.0198020
        k(   30) = (   0.0000000   0.2250000   0.0000000), wk =   0.0198020
        k(   31) = (   0.0000000   0.2500000   0.0000000), wk =   0.0198020
        k(   32) = (   0.0000000   0.2750000   0.0000000), wk =   0.0198020
        k(   33) = (   0.0000000   0.3000000   0.0000000), wk =   0.0198020
        k(   34) = (   0.0000000   0.3250000   0.0000000), wk =   0.0198020
        k(   35) = (   0.0000000   0.3500000   0.0000000), wk =   0.0198020
        k(   36) = (   0.0000000   0.3750000   0.0000000), wk =   0.0198020
        k(   37) = (   0.0000000   0.4000000   0.0000000), wk =   0.0198020
        k(   38) = (   0.0000000   0.4250000   0.0000000), wk =   0.0198020
        k(   39) = (   0.0000000   0.4500000   0.0000000), wk =   0.0198020
        k(   40) = (   0.0000000   0.4750000   0.0000000), wk =   0.0198020
        k(   41) = (   0.0000000   0.5000000   0.0000000), wk =   0.0198020
        k(   42) = (   0.0250000   0.5125000   0.0125000), wk =   0.0198020
        k(   43) = (   0.0500000   0.5250000   0.0250000), wk =   0.0198020
        k(   44) = (   0.0750000   0.5375000   0.0375000), wk =   0.0198020
        k(   45) = (   0.1000000   0.5500000   0.0500000), wk =   0.0198020
        k(   46) = (   0.1250000   0.5625000   0.0625000), wk =   0.0198020
        k(   47) = (   0.1500000   0.5750000   0.0750000), wk =   0.0198020
        k(   48) = (   0.1750000   0.5875000   0.0875000), wk =   0.0198020
        k(   49) = (   0.2000000   0.6000000   0.1000000), wk =   0.0198020
        k(   50) = (   0.2250000   0.6125000   0.1125000), wk =   0.0198020
        k(   51) = (   0.2500000   0.6250000   0.1250000), wk =   0.0198020
        k(   52) = (   0.2750000   0.6375000   0.1375000), wk =   0.0198020
        k(   53) = (   0.3000000   0.6500000   0.1500000), wk =   0.0198020
        k(   54) = (   0.3250000   0.6625000   0.1625000), wk =   0.0198020
        k(   55) = (   0.3500000   0.6750000   0.1750000), wk =   0.0198020
        k(   56) = (   0.3750000   0.6875000   0.1875000), wk =   0.0198020
        k(   57) = (   0.4000000   0.7000000   0.2000000), wk =   0.0198020
        k(   58) = (   0.4250000   0.7125000   0.2125000), wk =   0.0198020
        k(   59) = (   0.4500000   0.7250000   0.2250000), wk =   0.0198020
        k(   60) = (   0.4750000   0.7375000   0.2375000), wk =   0.0198020
        k(   61) = (   0.5000000   0.7500000   0.2500000), wk =   0.0198020
        k(   62) = (   0.4875000   0.7500000   0.2625000), wk =   0.0198020
        k(   63) = (   0.4750000   0.7500000   0.2750000), wk =   0.0198020
        k(   64) = (   0.4625000   0.7500000   0.2875000), wk =   0.0198020
        k(   65) = (   0.4500000   0.7500000   0.3000000), wk =   0.0198020
        k(   66) = (   0.4375000   0.7500000   0.3125000), wk =   0.0198020
        k(   67) = (   0.4250000   0.7500000   0.3250000), wk =   0.0198020
        k(   68) = (   0.4125000   0.7500000   0.3375000), wk =   0.0198020
        k(   69) = (   0.4000000   0.7500000   0.3500000), wk =   0.0198020
        k(   70) = (   0.3875000   0.7500000   0.3625000), wk =   0.0198020
        k(   71) = (   0.3750000   0.7500000   0.3750000), wk =   0.0198020
        k(   72) = (   0.3625000   0.7250000   0.3625000), wk =   0.0198020
        k(   73) = (   0.3500000   0.7000000   0.3500000), wk =   0.0198020
        k(   74) = (   0.3375000   0.6750000   0.3375000), wk =   0.0198020
        k(   75) = (   0.3250000   0.6500000   0.3250000), wk =   0.0198020
        k(   76) = (   0.3125000   0.6250000   0.3125000), wk =   0.0198020
        k(   77) = (   0.3000000   0.6000000   0.3000000), wk =   0.0198020
        k(   78) = (   0.2875000   0.5750000   0.2875000), wk =   0.0198020
        k(   79) = (   0.2750000   0.5500000   0.2750000), wk =   0.0198020
        k(   80) = (   0.2625000   0.5250000   0.2625000), wk =   0.0198020
        k(   81) = (   0.2500000   0.5000000   0.2500000), wk =   0.0198020
        k(   82) = (   0.2375000   0.4750000   0.2375000), wk =   0.0198020
        k(   83) = (   0.2250000   0.4500000   0.2250000), wk =   0.0198020
        k(   84) = (   0.2125000   0.4250000   0.2125000), wk =   0.0198020
        k(   85) = (   0.2000000   0.4000000   0.2000000), wk =   0.0198020
        k(   86) = (   0.1875000   0.3750000   0.1875000), wk =   0.0198020
        k(   87) = (   0.1750000   0.3500000   0.1750000), wk =   0.0198020
        k(   88) = (   0.1625000   0.3250000   0.1625000), wk =   0.0198020
        k(   89) = (   0.1500000   0.3000000   0.1500000), wk =   0.0198020
        k(   90) = (   0.1375000   0.2750000   0.1375000), wk =   0.0198020
        k(   91) = (   0.1250000   0.2500000   0.1250000), wk =   0.0198020
        k(   92) = (   0.1125000   0.2250000   0.1125000), wk =   0.0198020
        k(   93) = (   0.1000000   0.2000000   0.1000000), wk =   0.0198020
        k(   94) = (   0.0875000   0.1750000   0.0875000), wk =   0.0198020
        k(   95) = (   0.0750000   0.1500000   0.0750000), wk =   0.0198020
        k(   96) = (   0.0625000   0.1250000   0.0625000), wk =   0.0198020
        k(   97) = (   0.0500000   0.1000000   0.0500000), wk =   0.0198020
        k(   98) = (   0.0375000   0.0750000   0.0375000), wk =   0.0198020
        k(   99) = (   0.0250000   0.0500000   0.0250000), wk =   0.0198020
        k(  100) = (   0.0125000   0.0250000   0.0125000), wk =   0.0198020
        k(  101) = (   0.0000000   0.0000000   0.0000000), wk =   0.0198020

     Dense  grid:    10081 G-vectors     FFT dimensions: (  32,  32,  32)

     Dynamical RAM for                 wfc:       0.11 MB

     Dynamical RAM for     wfc (w. buffer):       0.11 MB

     Dynamical RAM for           str. fact:       0.08 MB

     Dynamical RAM for           local pot:       0.00 MB

     Dynamical RAM for          nlocal pot:       0.17 MB

     Dynamical RAM for                qrad:       8.22 MB

     Dynamical RAM for          rho,v,vnew:       0.30 MB

     Dynamical RAM for           G-vectors:       0.16 MB

     Dynamical RAM for          h,s,v(r/c):       0.39 MB

     Dynamical RAM for          <psi|beta>:       0.01 MB

     Dynamical RAM for                 psi:       0.45 MB

     Dynamical RAM for                hpsi:       0.45 MB

     Dynamical RAM for                spsi:       0.45 MB

     Dynamical RAM for      wfcinit/wfcrot:       0.25 MB

     Dynamical RAM for           addusdens:      21.43 MB

     Estimated static dynamical RAM per process >       9.47 MB

     Estimated max dynamical RAM per process >      30.90 MB

     Estimated total dynamical RAM >     123.60 MB

     Check: negative core charge=   -0.000012

     The potential is recalculated from file :
     ./outdir/LaH3.save/charge-density

     Starting wfcs are   24 randomized atomic wfcs
     Checking if some PAW data can be deallocated... 
       PAW data deallocated on    2 nodes for type:  1
       PAW data deallocated on    2 nodes for type:  2

     Band Structure Calculation
     Davidson diagonalization with overlap

     Computing kpt #:     1
     total cpu time spent up to now is        4.3 secs

     Computing kpt #:     2
     total cpu time spent up to now is        4.5 secs

     Computing kpt #:     3
     total cpu time spent up to now is        4.7 secs

     Computing kpt #:     4
     total cpu time spent up to now is        4.8 secs

     Computing kpt #:     5
     total cpu time spent up to now is        5.0 secs

     Computing kpt #:     6
     total cpu time spent up to now is        5.2 secs

     Computing kpt #:     7
     total cpu time spent up to now is        5.4 secs

     Computing kpt #:     8
     total cpu time spent up to now is        5.6 secs

     Computing kpt #:     9
     total cpu time spent up to now is        5.8 secs

     Computing kpt #:    10
     total cpu time spent up to now is        5.9 secs

     Computing kpt #:    11
     total cpu time spent up to now is        6.1 secs

     Computing kpt #:    12
     total cpu time spent up to now is        6.3 secs

     Computing kpt #:    13
     total cpu time spent up to now is        6.5 secs

     Computing kpt #:    14
     total cpu time spent up to now is        6.7 secs

     Computing kpt #:    15
     total cpu time spent up to now is        6.9 secs

     Computing kpt #:    16
     total cpu time spent up to now is        7.0 secs

     Computing kpt #:    17
     total cpu time spent up to now is        7.2 secs

     Computing kpt #:    18
     total cpu time spent up to now is        7.4 secs

     Computing kpt #:    19
     total cpu time spent up to now is        7.6 secs

     Computing kpt #:    20
     total cpu time spent up to now is        7.8 secs

     Computing kpt #:    21
     total cpu time spent up to now is        7.9 secs

     Computing kpt #:    22
     total cpu time spent up to now is        8.1 secs

     Computing kpt #:    23
     total cpu time spent up to now is        8.3 secs

     Computing kpt #:    24
     total cpu time spent up to now is        8.5 secs

     Computing kpt #:    25
     total cpu time spent up to now is        8.6 secs

     Computing kpt #:    26
     total cpu time spent up to now is        8.8 secs

     Computing kpt #:    27
     total cpu time spent up to now is        9.0 secs

     Computing kpt #:    28
     total cpu time spent up to now is        9.2 secs

     Computing kpt #:    29
     total cpu time spent up to now is        9.4 secs

     Computing kpt #:    30
     total cpu time spent up to now is        9.6 secs

     Computing kpt #:    31
     total cpu time spent up to now is        9.8 secs

     Computing kpt #:    32
     total cpu time spent up to now is        9.9 secs

     Computing kpt #:    33
     total cpu time spent up to now is       10.1 secs

     Computing kpt #:    34
     total cpu time spent up to now is       10.3 secs

     Computing kpt #:    35
     total cpu time spent up to now is       10.5 secs

     Computing kpt #:    36
     total cpu time spent up to now is       10.7 secs

     Computing kpt #:    37
     total cpu time spent up to now is       10.9 secs

     Computing kpt #:    38
     total cpu time spent up to now is       11.0 secs

     Computing kpt #:    39
     total cpu time spent up to now is       11.2 secs

     Computing kpt #:    40
     total cpu time spent up to now is       11.4 secs

     Computing kpt #:    41
     total cpu time spent up to now is       11.6 secs

     Computing kpt #:    42
     total cpu time spent up to now is       11.8 secs

     Computing kpt #:    43
     total cpu time spent up to now is       12.0 secs

     Computing kpt #:    44
     total cpu time spent up to now is       12.2 secs

     Computing kpt #:    45
     total cpu time spent up to now is       12.3 secs

     Computing kpt #:    46
     total cpu time spent up to now is       12.5 secs

     Computing kpt #:    47
     total cpu time spent up to now is       12.7 secs

     Computing kpt #:    48
     total cpu time spent up to now is       12.9 secs

     Computing kpt #:    49
     total cpu time spent up to now is       13.1 secs

     Computing kpt #:    50
     total cpu time spent up to now is       13.4 secs

     Computing kpt #:    51
     total cpu time spent up to now is       13.6 secs

     Computing kpt #:    52
     total cpu time spent up to now is       13.8 secs

     Computing kpt #:    53
     total cpu time spent up to now is       14.0 secs

     Computing kpt #:    54
     total cpu time spent up to now is       14.2 secs

     Computing kpt #:    55
     total cpu time spent up to now is       14.5 secs

     Computing kpt #:    56
     total cpu time spent up to now is       14.7 secs

     Computing kpt #:    57
     total cpu time spent up to now is       14.9 secs

     Computing kpt #:    58
     total cpu time spent up to now is       15.1 secs

     Computing kpt #:    59
     total cpu time spent up to now is       15.3 secs

     Computing kpt #:    60
     total cpu time spent up to now is       15.5 secs

     Computing kpt #:    61
     total cpu time spent up to now is       15.7 secs

     Computing kpt #:    62
     total cpu time spent up to now is       15.9 secs

     Computing kpt #:    63
     total cpu time spent up to now is       16.2 secs

     Computing kpt #:    64
     total cpu time spent up to now is       16.4 secs

     Computing kpt #:    65
     total cpu time spent up to now is       16.6 secs

     Computing kpt #:    66
     total cpu time spent up to now is       16.8 secs

     Computing kpt #:    67
     total cpu time spent up to now is       17.0 secs

     Computing kpt #:    68
     total cpu time spent up to now is       17.3 secs

     Computing kpt #:    69
     total cpu time spent up to now is       17.5 secs

     Computing kpt #:    70
     total cpu time spent up to now is       17.7 secs

     Computing kpt #:    71
     total cpu time spent up to now is       17.9 secs

     Computing kpt #:    72
     total cpu time spent up to now is       18.1 secs

     Computing kpt #:    73
     total cpu time spent up to now is       18.3 secs

     Computing kpt #:    74
     total cpu time spent up to now is       18.5 secs

     Computing kpt #:    75
     total cpu time spent up to now is       18.7 secs

     Computing kpt #:    76
     total cpu time spent up to now is       18.9 secs

     Computing kpt #:    77
     total cpu time spent up to now is       19.1 secs

     Computing kpt #:    78
     total cpu time spent up to now is       19.3 secs

     Computing kpt #:    79
     total cpu time spent up to now is       19.5 secs

     Computing kpt #:    80
     total cpu time spent up to now is       19.7 secs

     Computing kpt #:    81
     total cpu time spent up to now is       19.9 secs

     Computing kpt #:    82
     total cpu time spent up to now is       20.1 secs

     Computing kpt #:    83
     total cpu time spent up to now is       20.3 secs

     Computing kpt #:    84
     total cpu time spent up to now is       20.5 secs

     Computing kpt #:    85
     total cpu time spent up to now is       20.6 secs

     Computing kpt #:    86
     total cpu time spent up to now is       20.8 secs

     Computing kpt #:    87
     total cpu time spent up to now is       21.0 secs

     Computing kpt #:    88
     total cpu time spent up to now is       21.2 secs

     Computing kpt #:    89
     total cpu time spent up to now is       21.4 secs

     Computing kpt #:    90
     total cpu time spent up to now is       21.6 secs

     Computing kpt #:    91
     total cpu time spent up to now is       21.7 secs

     Computing kpt #:    92
     total cpu time spent up to now is       21.9 secs

     Computing kpt #:    93
     total cpu time spent up to now is       22.1 secs

     Computing kpt #:    94
     total cpu time spent up to now is       22.3 secs

     Computing kpt #:    95
     total cpu time spent up to now is       22.5 secs

     Computing kpt #:    96
     total cpu time spent up to now is       22.6 secs

     Computing kpt #:    97
     total cpu time spent up to now is       22.8 secs

     Computing kpt #:    98
     total cpu time spent up to now is       23.0 secs

     Computing kpt #:    99
     total cpu time spent up to now is       23.2 secs

     Computing kpt #:   100
     total cpu time spent up to now is       23.4 secs

     Computing kpt #:   101
     total cpu time spent up to now is       23.5 secs

     ethr =  4.35E-09,  avg # of iterations = 10.9

     total cpu time spent up to now is       23.5 secs

     End of band structure calculation

          k = 0.0000 0.0000 1.0000 (  1266 PWs)   bands (ev):

   -28.1653 -26.7960 -25.9054 -22.4495 -19.1250 -19.1250  -6.5787  -6.0491
    -6.0491   6.3290   6.8486  11.3703  11.7023  11.7023  11.8947  12.0388
    12.0388  12.1020  12.6486  15.6296  15.9585  15.9585  16.8779

          k = 0.0000 0.0000 0.9500 (  1278 PWs)   bands (ev):

   -30.2772 -27.0983 -26.7466 -22.4763 -22.4763 -22.4504  -6.5747  -6.0474
    -6.0474   6.3244   6.8645  11.3492  11.6517  11.6517  11.7824  11.9779
    11.9779  11.9800  12.6229  15.6178  15.8766  15.8766  16.8415

          k = 0.0000 0.0000 0.9000 (  1274 PWs)   bands (ev):

   -30.2984 -26.9943 -26.0358 -22.4527 -21.3505 -21.3505  -6.5625  -6.0424
    -6.0424   6.3103   6.9132  11.3382  11.6591  11.6591  11.7765  11.9881
    11.9881  12.0602  12.5881  15.5895  15.6884  15.6884  16.7395

          k = 0.0000 0.0000 0.8500 (  1266 PWs)   bands (ev):

   -29.7354 -26.0613 -22.5223 -22.4566 -20.5673 -20.5673  -6.5424  -6.0342
    -6.0342   6.2854   6.9936  11.3289  11.7267  11.7267  11.7909  12.0057
    12.0057  12.1435  12.5563  15.4294  15.4294  15.5519  16.5824

          k = 0.0000 0.0000 0.8000 (  1262 PWs)   bands (ev):

   -29.7203 -22.7726 -22.4629 -21.9496 -20.8611 -20.8611  -6.5145  -6.0229
    -6.0229   6.2474   7.1046  11.3507  11.7163  11.7163  11.8002  12.0167
    12.0167  12.1118  12.6027  15.1440  15.1440  15.4846  16.3929

          k = 0.0000 0.0000 0.7500 (  1274 PWs)   bands (ev):

   -30.1248 -24.1631 -23.9864 -23.9666 -23.9666 -22.4683  -6.4793  -6.0089
    -6.0089   6.1933   7.2415  11.2500  11.6819  11.6819  11.7529  11.9275
    11.9275  11.9863  12.4945  14.8422  14.8422  15.4012  16.1520

          k = 0.0000 0.0000 0.7000 (  1274 PWs)   bands (ev):

   -30.1030 -24.1918 -24.0023 -24.0023 -23.9840 -22.4760  -6.4372  -5.9923
    -5.9923   6.1205   7.4042  11.1784  11.6736  11.6736  11.7669  11.9143
    11.9143  11.9919  12.4636  14.5446  14.5446  15.3051  15.8912

          k = 0.0000 0.0000 0.6500 (  1267 PWs)   bands (ev):

   -28.3361 -24.7617 -23.9881 -22.4845 -21.7624 -21.7624  -6.3888  -5.9737
    -5.9737   6.0274   7.5925  11.1287  11.6844  11.6844  11.9291  11.9396
    11.9396  12.0243  12.4544  14.2608  14.2608  15.2007  15.6210

          k = 0.0000 0.0000 0.6000 (  1275 PWs)   bands (ev):

   -28.4420 -26.4540 -24.7829 -23.8173 -23.8173 -22.4938  -6.3350  -5.9535
    -5.9535   5.9112   7.7964  11.0734  11.6361  11.6361  11.8687  11.9299
    11.9317  11.9317  12.4235  13.9849  13.9849  15.0875  15.3440

          k = 0.0000 0.0000 0.5500 (  1283 PWs)   bands (ev):

   -28.6255 -26.8820 -26.1749 -26.0791 -26.0791 -22.5037  -6.2767  -5.9321
    -5.9321   5.7739   8.0156  11.0637  11.6172  11.6172  11.8160  11.8241
    11.8241  11.9077  12.4570  13.7235  13.7235  14.9701  15.0702

          k = 0.0000 0.0000 0.5000 (  1283 PWs)   bands (ev):

   -28.5893 -26.9127 -26.1160 -26.0995 -26.0995 -22.5137  -6.2149  -5.9100
    -5.9100   5.6186   8.2459  11.0888  11.6142  11.6142  11.8186  11.8186
    11.8292  11.9281  12.5226  13.4795  13.4795  14.8044  14.8516

          k = 0.0000 0.0000 0.4500 (  1299 PWs)   bands (ev):

   -30.1058 -29.7597 -29.7597 -29.2227 -27.5386 -22.5237  -6.1512  -5.8879
    -5.8879   5.4496   8.4751  11.0619  11.5891  11.5891  11.7139  11.7139
    11.7676  11.7719  12.4704  13.2487  13.2487  14.5450  14.7345

          k = 0.0000 0.0000 0.4000 (  1295 PWs)   bands (ev):

   -30.0759 -29.7049 -29.7049 -27.5559 -26.2075 -22.5334  -6.0869  -5.8661
    -5.8661   5.2740   8.7140  11.1836  11.5860  11.5860  11.7243  11.7243
    11.7848  11.8043  12.6357  13.0405  13.0405  14.3137  14.6217

          k = 0.0000 0.0000 0.3500 (  1303 PWs)   bands (ev):

   -31.3687 -31.3687 -30.0685 -28.9281 -27.7791 -22.5426  -6.0239  -5.8454
    -5.8454   5.0981   8.9444  11.2374  11.5706  11.5706  11.6287  11.6287
    11.7583  11.8307  12.7118  12.8443  12.8443  14.0976  14.5155

          k = 0.0000 0.0000 0.3000 (  1295 PWs)   bands (ev):

   -30.0575 -30.0575 -29.9190 -27.7216 -25.4280 -22.5510  -5.9637  -5.8261
    -5.8261   4.9295   9.1729  11.3694  11.5823  11.5823  11.7302  11.7302
    11.7904  11.8865  12.6864  12.6864  12.8469  13.9291  14.4190

          k = 0.0000 0.0000 0.2500 (  1287 PWs)   bands (ev):

   -28.8894 -28.8894 -27.0842 -26.4828 -25.5686 -22.5586  -5.9086  -5.8088
    -5.8088   4.7746   9.3986  11.4593  11.6396  11.6396  11.7573  11.7573
    11.8782  11.9587  12.5442  12.5442  12.9122  13.8331  14.3408

          k = 0.0000 0.0000 0.2000 (  1279 PWs)   bands (ev):

   -28.2974 -28.2974 -26.1151 -24.3869 -23.3921 -22.5649  -5.8602  -5.7940
    -5.7940   4.6391   9.6046  11.5544  11.6606  11.6606  11.8474  11.8474
    11.9182  12.0036  12.4271  12.4271  12.9336  13.8348  14.2701

          k = 0.0000 0.0000 0.1500 (  1271 PWs)   bands (ev):

   -26.2692 -26.2692 -26.1350 -23.5048 -22.5701 -21.8067  -5.8204  -5.7821
    -5.7821   4.5284   9.8016  11.6514  11.6763  11.6763  11.9001  11.9001
    12.0046  12.0537  12.3156  12.3156  12.9228  13.9194  14.2141

          k = 0.0000 0.0000 0.1000 (  1251 PWs)   bands (ev):

   -23.2424 -22.5737 -21.5854 -21.5854 -21.3317 -19.7987  -5.7906  -5.7732
    -5.7732   4.4464   9.9852  11.7775  11.7775  11.8091  11.9848  11.9848
    12.0788  12.1644  12.2598  12.2598  12.9547  14.0268  14.1774

          k = 0.0000 0.0000 0.0500 (  1243 PWs)   bands (ev):

   -22.5761 -21.2509 -21.2499 -19.4639 -19.4639 -19.4637  -5.7723  -5.7679
    -5.7679   4.3959  10.0927  11.8304  11.8304  11.8304  12.0484  12.0484
    12.0742  12.1869  12.2270  12.2270  12.9453  14.1095  14.1491

          k = 0.0000 0.0000 0.0000 (  1243 PWs)   bands (ev):

   -22.5769 -21.2582 -21.2582 -19.4712 -19.4712 -19.4712  -5.7661  -5.7661
    -5.7661   4.3788  10.1258  11.8282  11.8282  11.8282  12.0714  12.0714
    12.0714  12.1877  12.1877  12.1877  12.9269  14.1394  14.1394

          k = 0.0250 0.0250 0.0250 (  1243 PWs)   bands (ev):

   -22.5763 -21.2524 -21.2524 -19.4658 -19.4658 -19.4654  -5.7721  -5.7667
    -5.7667   4.3916  10.1010  11.8293  11.8301  11.8301  12.0515  12.0515
    12.0770  12.1883  12.2174  12.2174  12.9410  14.1317  14.1317

          k = 0.0500 0.0500 0.0500 (  1249 PWs)   bands (ev):

   -22.5749 -22.3199 -22.1373 -22.1373 -19.6434 -19.6434  -5.7902  -5.7686
    -5.7686   4.4297  10.0182  11.7973  11.7999  11.7999  11.9997  11.9997
    12.0916  12.1893  12.2337  12.2337  12.9483  14.1084  14.1084

          k = 0.0750 0.0750 0.0750 (  1261 PWs)   bands (ev):

   -26.3113 -23.8894 -23.8894 -22.5717 -20.8684 -20.8684  -5.8196  -5.7718
    -5.7718   4.4919   9.8802  11.7101  11.7534  11.7534  11.9197  11.9197
    12.0900  12.1582  12.2544  12.2544  12.9448  14.0723  14.0723

          k = 0.1000 0.1000 0.1000 (  1273 PWs)   bands (ev):

   -27.2984 -26.5330 -26.5330 -22.6586 -22.6586 -22.5679  -5.8592  -5.7760
    -5.7760   4.5769   9.7436  11.6480  11.6480  11.6682  11.8406  11.8406
    12.0434  12.0763  12.3011  12.3011  13.0254  14.0310  14.0310

          k = 0.1250 0.1250 0.1250 (  1279 PWs)   bands (ev):

   -28.0547 -28.0547 -27.3508 -23.5420 -23.5420 -22.5631  -5.9079  -5.7813
    -5.7813   4.6824   9.5880  11.6159  11.6159  11.6218  11.7839  11.7839
    12.0257  12.0299  12.3643  12.3643  13.1161  13.9904  13.9904

          k = 0.1500 0.1500 0.1500 (  1279 PWs)   bands (ev):

   -28.0401 -28.0401 -27.3546 -23.5334 -23.5334 -22.5574  -5.9641  -5.7875
    -5.7875   4.8060   9.4420  11.5827  11.6235  11.6235  11.7573  11.7573
    12.0002  12.0302  12.4305  12.4305  13.2418  13.9664  13.9664

          k = 0.1750 0.1750 0.1750 (  1278 PWs)   bands (ev):

   -28.0125 -28.0125 -26.5544 -23.5139 -23.5139 -22.5510  -6.0262  -5.7944
    -5.7944   4.9444   9.2959  11.5499  11.6342  11.6342  11.7400  11.7400
    12.0049  12.0313  12.4799  12.4799  13.3652  13.9669  13.9669

          k = 0.2000 0.2000 0.2000 (  1293 PWs)   bands (ev):

   -30.1643 -30.1643 -27.5073 -26.8150 -26.8150 -22.5442  -6.0922  -5.8019
    -5.8019   5.0938   9.1384  11.4365  11.5168  11.5168  11.6767  11.6767
    11.8858  11.9881  12.4775  12.4775  13.4421  13.9955  13.9955

          k = 0.2250 0.2250 0.2250 (  1284 PWs)   bands (ev):

   -28.1048 -28.1048 -26.2850 -26.2850 -25.4381 -22.5368  -6.1606  -5.8097
    -5.8097   5.2512   8.9975  11.3915  11.5894  11.5894  11.7419  11.7419
    11.8893  11.9896  12.5054  12.5054  13.5485  14.0705  14.0705

          k = 0.2500 0.2500 0.2500 (  1287 PWs)   bands (ev):

   -28.1552 -28.1552 -27.6988 -26.2852 -26.2852 -22.5293  -6.2295  -5.8176
    -5.8176   5.4117   8.8564  11.3340  11.6000  11.6000  11.7259  11.7259
    11.8896  11.9003  12.4727  12.4727  13.6398  14.1780  14.1780

          k = 0.2750 0.2750 0.2750 (  1287 PWs)   bands (ev):

   -27.9236 -27.9236 -27.2098 -26.7659 -26.7659 -22.5218  -6.2972  -5.8256
    -5.8256   5.5722   8.7295  11.2991  11.5879  11.5879  11.7585  11.7585
    11.8498  11.8597  12.4294  12.4294  13.7312  14.3104  14.3104

          k = 0.3000 0.3000 0.3000 (  1272 PWs)   bands (ev):

   -25.8734 -25.8734 -24.4498 -24.1521 -24.1521 -22.5143  -6.3621  -5.8333
    -5.8333   5.7284   8.6149  11.3005  11.6799  11.6799  11.8642  11.8642
    11.8920  11.9525  12.4040  12.4040  13.8367  14.4785  14.4785

          k = 0.3250 0.3250 0.3250 (  1272 PWs)   bands (ev):

   -25.8777 -25.8777 -24.4633 -24.1529 -24.1529 -22.5073  -6.4229  -5.8406
    -5.8406   5.8762   8.5070  11.2864  11.6934  11.6934  11.8538  11.8538
    11.8908  11.9346  12.3335  12.3335  13.9229  14.6536  14.6536

          k = 0.3500 0.3500 0.3500 (  1272 PWs)   bands (ev):

   -25.8707 -25.8707 -24.4644 -24.1413 -24.1413 -22.5008  -6.4782  -5.8474
    -5.8474   6.0124   8.4099  11.2833  11.7114  11.7114  11.8498  11.8498
    11.8902  11.9240  12.2629  12.2629  14.0088  14.8349  14.8349

          k = 0.3750 0.3750 0.3750 (  1275 PWs)   bands (ev):

   -26.0772 -26.0772 -25.0612 -25.0612 -24.4889 -22.4950  -6.5270  -5.8534
    -5.8534   6.1338   8.3238  11.2813  11.6973  11.6973  11.8477  11.8477
    11.8904  11.9117  12.1788  12.1788  14.0849  15.0126  15.0126

          k = 0.4000 0.4000 0.4000 (  1263 PWs)   bands (ev):

   -25.1714 -25.1714 -23.7849 -22.4899 -21.3443 -21.3443  -6.5681  -5.8585
    -5.8585   6.2377   8.2515  11.3099  11.7778  11.7778  11.9025  11.9320
    11.9388  11.9388  12.1886  12.1886  14.1800  15.1811  15.1811

          k = 0.4250 0.4250 0.4250 (  1266 PWs)   bands (ev):

   -26.5718 -26.5718 -22.4865 -22.1077 -22.1077 -21.8653  -6.6010  -5.8626
    -5.8626   6.3213   8.1908  11.3219  11.7704  11.7704  11.7976  11.9135
    11.9135  11.9915  12.1416  12.1416  14.2491  15.3219  15.3219

          k = 0.4500 0.4500 0.4500 (  1266 PWs)   bands (ev):

   -26.6926 -26.6926 -22.4833 -22.0907 -22.0907 -21.5383  -6.6249  -5.8656
    -5.8656   6.3830   8.1466  11.3646  11.7722  11.7722  11.7832  11.9150
    11.9150  12.0012  12.1044  12.1044  14.3241  15.4338  15.4338

          k = 0.4750 0.4750 0.4750 (  1260 PWs)   bands (ev):

   -26.5204 -26.5204 -22.4815 -20.4659 -20.4659 -20.0016  -6.6394  -5.8674
    -5.8674   6.4203   8.1188  11.3740  11.7844  11.8007  11.8007  11.9199
    11.9199  11.9883  12.1840  12.1840  14.3641  15.5024  15.5024

          k = 0.5000 0.5000 0.5000 (  1260 PWs)   bands (ev):

   -26.5261 -26.5261 -22.4809 -20.4717 -20.4717 -20.0065  -6.6443  -5.8681
    -5.8681   6.4330   8.1096  11.3774  11.7841  11.8098  11.8098  11.9078
    11.9078  11.9840  12.1754  12.1754  14.3786  15.5272  15.5272

          k = 0.4750 0.5000 0.5250 (  1260 PWs)   bands (ev):

   -26.5221 -26.5214 -22.4807 -20.4682 -20.4680 -20.0026  -6.6429  -5.8710
    -5.8687   6.4382   8.1013  11.3638  11.7435  11.8195  11.8485  11.9107
    11.9214  11.9848  12.1754  12.1768  14.3912  15.5241  15.5438

          k = 0.4500 0.5000 0.5500 (  1264 PWs)   bands (ev):

   -28.8202 -26.2421 -22.4804 -21.0526 -20.5859 -20.4626  -6.6389  -5.8798
    -5.8708   6.4529   8.0754  11.2484  11.7170  11.8169  11.8940  11.9116
    11.9728  11.9870  12.1355  12.1607  14.3727  15.5135  15.5906

          k = 0.4250 0.5000 0.5750 (  1260 PWs)   bands (ev):

   -27.2488 -26.1262 -22.4794 -21.1666 -19.8607 -19.5224  -6.6322  -5.8941
    -5.8742   6.4779   8.0359  11.2114  11.7007  11.8753  11.9089  11.9639
    12.0086  12.0706  12.1195  12.1728  14.4422  15.5022  15.6710

          k = 0.4000 0.5000 0.6000 (  1264 PWs)   bands (ev):

   -26.8564 -25.7463 -22.7448 -22.4768 -21.4962 -20.4593  -6.6230  -5.9136
    -5.8790   6.5111   7.9820  11.1619  11.6946  11.8699  11.9164  11.9603
    11.9920  12.0215  12.1142  12.1735  14.5254  15.4794  15.7728

          k = 0.3750 0.5000 0.6250 (  1260 PWs)   bands (ev):

   -27.0111 -24.5947 -22.4765 -21.7695 -20.6663 -19.9753  -6.6113  -5.9376
    -5.8852   6.5519   7.9163  11.1100  11.7036  11.8753  11.9371  11.9855
    12.0398  12.0674  12.1319  12.2831  14.6266  15.4496  15.9020

          k = 0.3500 0.5000 0.6500 (  1256 PWs)   bands (ev):

   -25.6867 -24.5071 -22.4745 -21.6120 -19.5289 -19.4486  -6.5972  -5.9655
    -5.8928   6.5979   7.8412  11.0657  11.7086  11.8961  11.9450  12.0207
    12.0828  12.1137  12.1406  12.4129  14.7497  15.4151  16.0504

          k = 0.3250 0.5000 0.6750 (  1260 PWs)   bands (ev):

   -25.9261 -24.7254 -22.4725 -22.0710 -21.7587 -19.7021  -6.5811  -5.9965
    -5.9019   6.6470   7.7597  11.0235  11.6919  11.8481  11.9219  12.0063
    12.0512  12.0766  12.1318  12.5343  14.8878  15.3721  16.2094

          k = 0.3000 0.5000 0.7000 (  1264 PWs)   bands (ev):

   -27.0279 -24.3436 -22.8657 -22.6030 -22.4694 -20.7252  -6.5630  -6.0297
    -5.9123   6.6974   7.6741  10.9814  11.6967  11.7894  11.9310  11.9679
    11.9816  12.0821  12.1033  12.6685  15.0376  15.3228  16.3767

          k = 0.2750 0.5000 0.7250 (  1266 PWs)   bands (ev):

   -28.1902 -24.2927 -23.0312 -22.7548 -22.4671 -20.9964  -6.5432  -6.0643
    -5.9241   6.7473   7.5872  10.9533  11.6882  11.7734  11.9130  11.9335
    11.9564  12.0889  12.1025  12.8049  15.1999  15.2758  16.5534

          k = 0.2500 0.5000 0.7500 (  1264 PWs)   bands (ev):

   -28.1196 -23.3889 -23.0044 -22.7733 -22.4646 -20.3514  -6.5220  -6.0993
    -5.9372   6.7953   7.5027  10.9461  11.6795  11.7763  11.9014  11.9338
    12.0171  12.0931  12.1045  12.9487  15.2352  15.3770  16.7333

          k = 0.2250 0.5000 0.7750 (  1266 PWs)   bands (ev):

   -28.4804 -23.8330 -23.3676 -23.0516 -22.4623 -20.5626  -6.4997  -6.1337
    -5.9516   6.8392   7.4213  10.9435  11.6461  11.7503  11.8859  11.9330
    12.0116  12.0800  12.1041  13.0879  15.2055  15.5542  16.9052

          k = 0.2000 0.5000 0.8000 (  1268 PWs)   bands (ev):

   -28.1558 -24.4893 -23.2023 -23.2010 -22.4600 -21.8196  -6.4769  -6.1665
    -5.9671   6.8775   7.3453  10.9472  11.6358  11.7562  11.8710  11.9327
    11.9968  12.0483  12.0870  13.2133  15.1971  15.7313  17.0651

          k = 0.1750 0.5000 0.8250 (  1264 PWs)   bands (ev):

   -27.3303 -24.1852 -23.3169 -22.4578 -22.1689 -20.4937  -6.4541  -6.1969
    -5.9835   6.9091   7.2777  10.9700  11.6048  11.8750  11.8980  11.9342
    12.0053  12.0576  12.0997  13.3207  15.2240  15.9042  17.2048

          k = 0.1500 0.5000 0.8500 (  1264 PWs)   bands (ev):

   -26.8637 -24.2274 -22.8797 -22.4573 -22.3526 -21.1956  -6.4321  -6.2238
    -6.0004   6.9325   7.2205  11.0029  11.5975  11.8768  11.9101  11.9434
    11.9681  12.0673  12.0855  13.3900  15.2888  16.0773  17.2999

          k = 0.1250 0.5000 0.8750 (  1264 PWs)   bands (ev):

   -27.0255 -24.2344 -23.1449 -22.4541 -21.9515 -21.1907  -6.4119  -6.2461
    -6.0177   6.9458   7.1758  11.0333  11.5623  11.8698  11.9060  11.9668
    11.9906  12.0642  12.0852  13.4346  15.3954  16.2451  17.3301

          k = 0.1000 0.5000 0.9000 (  1256 PWs)   bands (ev):

   -25.3739 -23.3276 -22.4523 -22.3153 -20.2963 -19.5659  -6.3951  -6.2625
    -6.0345   6.9488   7.1458  11.0734  11.5779  11.9198  11.9802  11.9985
    12.0308  12.1085  12.1344  13.4783  15.5384  16.4011  17.3267

          k = 0.0750 0.5000 0.9250 (  1258 PWs)   bands (ev):

   -26.2307 -23.3326 -22.4510 -22.3714 -21.0206 -19.5893  -6.3831  -6.2720
    -6.0499   6.9431   7.1283  11.1066  11.5391  11.8955  11.9748  11.9892
    12.0132  12.1092  12.1286  13.4809  15.6875  16.5385  17.3077

          k = 0.0500 0.5000 0.9500 (  1250 PWs)   bands (ev):

   -24.7771 -22.4500 -21.7602 -20.3090 -20.1088 -18.8509  -6.3766  -6.2752
    -6.0628   6.9341   7.1210  11.1494  11.5575  11.9791  11.9968  12.0337
    12.0639  12.1399  12.1755  13.5000  15.8321  16.6559  17.2901

          k = 0.0250 0.5000 0.9750 (  1252 PWs)   bands (ev):

   -25.4944 -22.4494 -21.9934 -21.7837 -20.5533 -17.6307  -6.3741  -6.2747
    -6.0715   6.9264   7.1176  11.1670  11.5172  11.9781  12.0127  12.0362
    12.0419  12.1228  12.1516  13.4843  15.9370  16.7323  17.2710

          k = 0.0000 0.5000 1.0000 (  1256 PWs)   bands (ev):

   -26.3878 -22.4493 -22.1698 -22.1689 -20.9489 -19.1346  -6.3736  -6.2741
    -6.0746   6.9235   7.1166  11.1726  11.4895  11.9607  11.9773  11.9964
    12.0323  12.1168  12.1291  13.4742  15.9696  16.7577  17.2603

          k = 0.0000 0.5250 0.9750 (  1252 PWs)   bands (ev):

   -25.6001 -22.4493 -21.7356 -20.8758 -20.3413 -18.9015  -6.3775  -6.2709
    -6.0727   6.9212   7.1151  11.1777  11.5169  11.9698  11.9917  12.0233
    12.0643  12.1384  12.1594  13.4940  15.9503  16.7435  17.2588

          k = 0.0000 0.5500 0.9500 (  1248 PWs)   bands (ev):

   -25.5503 -22.4495 -21.7010 -20.8566 -19.5496 -16.4491  -6.3867  -6.2642
    -6.0670   6.9155   7.1085  11.1766  11.5361  12.0241  12.0372  12.0561
    12.0720  12.1496  12.1692  13.5291  15.9070  16.6854  17.2595

          k = 0.0000 0.5750 0.9250 (  1259 PWs)   bands (ev):

   -27.4200 -24.2664 -22.6529 -22.4499 -21.4736 -17.6002  -6.3981  -6.2577
    -6.0577   6.9074   7.0956  11.1631  11.4984  11.9317  11.9682  12.0044
    12.0379  12.0494  12.1416  13.5474  15.8192  16.5812  17.2652

          k = 0.0000 0.6000 0.9000 (  1263 PWs)   bands (ev):

   -27.4421 -24.5215 -23.2855 -22.9145 -22.4502 -18.6424  -6.4096  -6.2529
    -6.0454   6.8987   7.0796  11.1678  11.5197  11.9108  11.9387  11.9595
    11.9892  12.0351  12.1383  13.6147  15.7197  16.4406  17.2778

          k = 0.0000 0.6250 0.8750 (  1266 PWs)   bands (ev):

   -27.2982 -24.8393 -23.8201 -23.5706 -22.4507 -19.8424  -6.4203  -6.2502
    -6.0318   6.8897   7.0617  11.1693  11.5499  11.8770  11.9279  11.9551
    11.9856  12.0031  12.1133  13.6960  15.6196  16.2821  17.2896

          k = 0.0000 0.6500 0.8500 (  1267 PWs)   bands (ev):

   -27.4380 -25.2038 -24.5392 -23.1199 -22.4511 -19.9486  -6.4295  -6.2489
    -6.0183   6.8809   7.0436  11.1760  11.5746  11.8514  11.9203  11.9453
    11.9641  12.0172  12.1185  13.7887  15.5206  16.1103  17.3056

          k = 0.0000 0.6750 0.8250 (  1268 PWs)   bands (ev):

   -27.4587 -25.4336 -24.5245 -23.7058 -22.4515 -19.9594  -6.4370  -6.2486
    -6.0063   6.8725   7.0278  11.1893  11.5965  11.8108  11.9257  11.9434
    11.9599  12.0092  12.1306  13.8834  15.4393  15.9454  17.3182

          k = 0.0000 0.7000 0.8000 (  1270 PWs)   bands (ev):

   -28.4937 -25.6284 -24.6685 -23.9277 -22.4518 -19.9663  -6.4424  -6.2488
    -5.9970   6.8654   7.0157  11.1967  11.6242  11.7421  11.9318  11.9335
    11.9555  12.0023  12.1382  13.9677  15.3776  15.8040  17.3269

          k = 0.0000 0.7250 0.7750 (  1272 PWs)   bands (ev):

   -28.4209 -25.8116 -24.8612 -24.3665 -22.4520 -20.8206  -6.4457  -6.2490
    -5.9911   6.8607   7.0082  11.2050  11.6709  11.6977  11.8921  11.9191
    11.9293  12.0172  12.1391  14.0269  15.3385  15.7095  17.3309

          k = 0.0000 0.7500 0.7500 (  1260 PWs)   bands (ev):

   -26.3268 -24.5071 -22.4520 -22.4182 -20.9982 -20.0841  -6.4468  -6.2491
    -5.9890   6.8594   7.0064  11.2331  11.7388  11.7733  11.9890  11.9913
    12.0117  12.0572  12.1776  14.0629  15.3345  15.6863  17.3369

          k = 0.0000 0.7250 0.7250 (  1262 PWs)   bands (ev):

   -26.3348 -23.1916 -23.1578 -22.4531 -22.4043 -20.8843  -6.4244  -6.2744
    -5.9778   6.9438   7.0155  11.1788  11.7399  11.7790  11.9076  11.9957
    12.0280  12.0763  12.1065  13.9015  15.2141  15.6387  17.3027

          k = 0.0000 0.7000 0.7000 (  1274 PWs)   bands (ev):

   -28.8137 -25.5219 -25.0247 -24.0601 -22.4545 -22.3982  -6.4045  -6.2938
    -5.9662   6.9727   7.0728  11.1164  11.6444  11.6623  11.8109  11.9839
    11.9953  11.9974  12.0362  13.7260  15.0872  15.6090  17.2060

          k = 0.0000 0.6750 0.6750 (  1276 PWs)   bands (ev):

   -29.1659 -25.4412 -24.6053 -24.4494 -23.7118 -22.4564  -6.3927  -6.3012
    -5.9542   6.9539   7.1703  11.0561  11.6241  11.6654  11.8223  11.9122
    11.9737  12.0029  12.0159  13.5939  14.9601  15.6093  17.0982

          k = 0.0000 0.6500 0.6500 (  1276 PWs)   bands (ev):

   -29.1404 -25.4759 -24.5875 -24.4312 -23.7179 -22.4587  -6.3934  -6.2918
    -5.9419   6.9184   7.2756  10.9911  11.6371  11.6625  11.8114  11.9212
    11.9575  12.0000  12.0272  13.4693  14.8238  15.6377  16.9917

          k = 0.0000 0.6250 0.6250 (  1270 PWs)   bands (ev):

   -29.0336 -25.3355 -23.1632 -22.7394 -22.4598 -22.1326  -6.4016  -6.2700
    -5.9294   6.8695   7.3849  10.9251  11.6645  11.6659  11.8326  11.9308
    12.0224  12.0281  12.1152  13.3670  14.6894  15.6741  16.8934

          k = 0.0000 0.6000 0.6000 (  1272 PWs)   bands (ev):

   -29.8023 -25.3589 -23.1715 -22.9991 -22.6719 -22.4635  -6.4104  -6.2426
    -5.9169   6.8076   7.4958  10.8577  11.6623  11.6832  11.8253  11.8713
    11.9998  12.0243  12.1183  13.2721  14.5479  15.6966  16.8029

          k = 0.0000 0.5750 0.5750 (  1278 PWs)   bands (ev):

   -29.9290 -25.5357 -24.7845 -24.5078 -24.1689 -22.4678  -6.4165  -6.2126
    -5.9046   6.7336   7.6080  10.8000  11.6578  11.7110  11.7918  11.8338
    11.9029  12.0102  12.0279  13.1939  14.4034  15.6819  16.7132

          k = 0.0000 0.5500 0.5500 (  1272 PWs)   bands (ev):

   -27.5672 -25.7987 -25.4891 -24.8140 -22.4720 -20.3681  -6.4184  -6.1814
    -5.8924   6.6487   7.7231  10.7614  11.6798  11.7681  11.8384  11.8714
    11.9233  12.0376  12.0422  13.1314  14.2628  15.6506  16.6284

          k = 0.0000 0.5250 0.5250 (  1272 PWs)   bands (ev):

   -27.5665 -25.8111 -25.5032 -24.8126 -22.4764 -20.3880  -6.4153  -6.1498
    -5.8805   6.5527   7.8360  10.7255  11.6747  11.7662  11.8413  11.8621
    11.9288  12.0382  12.0579  13.0863  14.1199  15.5724  16.5145

          k = 0.0000 0.5000 0.5000 (  1278 PWs)   bands (ev):

   -28.4977 -27.3733 -26.0124 -24.9572 -22.4818 -22.1538  -6.4070  -6.1182
    -5.8690   6.4469   7.9480  10.6998  11.6447  11.7395  11.8058  11.8466
    11.9106  11.9780  12.0385  13.0530  13.9771  15.4603  16.3580

          k = 0.0000 0.4750 0.4750 (  1276 PWs)   bands (ev):

   -27.6166 -27.3354 -25.9639 -23.6986 -22.7700 -22.4863  -6.3932  -6.0870
    -5.8580   6.3325   8.0622  10.7003  11.6685  11.7489  11.7910  11.8328
    11.9178  12.0429  12.0619  13.0424  13.8389  15.3384  16.1717

          k = 0.0000 0.4500 0.4500 (  1283 PWs)   bands (ev):

   -29.0727 -28.0206 -26.6018 -25.8386 -23.5430 -22.4920  -6.3740  -6.0564
    -5.8476   6.2105   8.1714  10.7100  11.6329  11.6895  11.7518  11.8303
    11.9172  11.9382  12.0328  13.0307  13.6940  15.1847  15.9645

          k = 0.0000 0.4250 0.4250 (  1283 PWs)   bands (ev):

   -29.0631 -28.0248 -26.6048 -25.8404 -23.5693 -22.4980  -6.3495  -6.0267
    -5.8378   6.0822   8.2811  10.7388  11.6321  11.6923  11.7382  11.8396
    11.9211  11.9366  12.0635  13.0455  13.5602  15.0183  15.7454

          k = 0.0000 0.4000 0.4000 (  1283 PWs)   bands (ev):

   -29.4441 -27.5418 -26.6708 -25.8841 -23.5248 -22.5041  -6.3200  -5.9981
    -5.8286   5.9486   8.3917  10.7880  11.6150  11.6820  11.7202  11.8590
    11.9194  11.9440  12.1118  13.0710  13.4395  14.8448  15.5262

          k = 0.0000 0.3750 0.3750 (  1273 PWs)   bands (ev):

   -27.0884 -26.4218 -24.6576 -24.4670 -22.5305 -22.5094  -6.2859  -5.9708
    -5.8200   5.8119   8.5081  10.8760  11.6483  11.7245  11.7889  11.8927
    11.9353  12.0304  12.2231  13.1256  13.3290  14.6708  15.3183

          k = 0.0000 0.3500 0.3500 (  1273 PWs)   bands (ev):

   -27.0731 -26.4309 -24.6697 -24.4804 -22.5333 -22.5154  -6.2478  -5.9448
    -5.8122   5.6725   8.6197  10.9481  11.6544  11.7100  11.7835  11.9050
    11.9386  12.0428  12.2535  13.1319  13.2491  14.4716  15.1216

          k = 0.0000 0.3250 0.3250 (  1287 PWs)   bands (ev):

   -29.7783 -28.4147 -27.6136 -25.8240 -24.9505 -22.5236  -6.2064  -5.9205
    -5.8051   5.5323   8.7326  11.0089  11.5482  11.6496  11.7300  11.7699
    11.8858  11.9915  12.2076  13.0296  13.2538  14.2601  14.9403

          k = 0.0000 0.3000 0.3000 (  1279 PWs)   bands (ev):

   -29.2243 -28.0947 -26.2212 -23.3808 -23.2836 -22.5299  -6.1622  -5.8977
    -5.7986   5.3933   8.8528  11.1016  11.5853  11.7344  11.7512  11.8044
    11.9302  12.0494  12.2654  12.9423  13.3306  14.0612  14.7868

          k = 0.0000 0.2750 0.2750 (  1279 PWs)   bands (ev):

   -29.2124 -28.0974 -26.2346 -23.3996 -23.3094 -22.5363  -6.1162  -5.8767
    -5.7929   5.2567   8.9725  11.1787  11.5957  11.7212  11.7385  11.8126
    11.9472  12.0560  12.3028  12.8328  13.4045  13.8610  14.6409

          k = 0.0000 0.2500 0.2500 (  1275 PWs)   bands (ev):

   -28.4213 -26.5323 -26.2355 -22.9332 -22.9069 -22.5425  -6.0693  -5.8575
    -5.7878   5.1245   9.0961  11.2587  11.6542  11.7354  11.7857  11.8283
    11.9755  12.0702  12.3404  12.7482  13.4867  13.6727  14.5127

          k = 0.0000 0.2250 0.2250 (  1283 PWs)   bands (ev):

   -29.7922 -27.8157 -27.8052 -25.1497 -23.0050 -22.5484  -6.0224  -5.8401
    -5.7833   4.9979   9.2171  11.3002  11.6582  11.6891  11.7308  11.7510
    11.9859  12.0128  12.3542  12.6474  13.4893  13.5541  14.4067

          k = 0.0000 0.2000 0.2000 (  1283 PWs)   bands (ev):

   -29.7885 -27.8624 -27.8148 -25.1756 -23.0212 -22.5540  -5.9767  -5.8245
    -5.7794   4.8791   9.3427  11.3576  11.6666  11.6805  11.7351  11.7405
    11.9975  12.0211  12.3667  12.5515  13.3301  13.6444  14.3140

          k = 0.0000 0.1750 0.1750 (  1281 PWs)   bands (ev):

   -29.7754 -27.3320 -27.2448 -24.7417 -23.0304 -22.5590  -5.9330  -5.8107
    -5.7761   4.7696   9.4694  11.4329  11.6687  11.6771  11.7446  11.7556
    12.0324  12.0454  12.3607  12.4615  13.1962  13.7356  14.2420

          k = 0.0000 0.1500 0.1500 (  1277 PWs)   bands (ev):

   -29.7092 -26.8680 -26.3903 -23.5931 -22.5634 -22.3584  -5.8925  -5.7989
    -5.7733   4.6711   9.5963  11.4968  11.6749  11.6956  11.7709  11.7859
    12.0594  12.1073  12.3357  12.3834  13.0894  13.8249  14.1909

          k = 0.0000 0.1250 0.1250 (  1277 PWs)   bands (ev):

   -29.6765 -26.8728 -26.4043 -23.5944 -22.5674 -22.3579  -5.8562  -5.7888
    -5.7710   4.5848   9.7140  11.5368  11.6719  11.6895  11.7979  11.8078
    12.0665  12.1140  12.2924  12.3054  12.9870  13.9087  14.1585

          k = 0.0000 0.1000 0.1000 (  1265 PWs)   bands (ev):

   -26.5120 -26.1033 -24.1130 -22.5710 -22.1553 -20.2335  -5.8250  -5.7806
    -5.7692   4.5123   9.8400  11.6569  11.7052  11.7591  11.8842  11.9065
    12.0911  12.1280  12.2563  12.2991  12.9509  13.9865  14.1420

          k = 0.0000 0.0750 0.0750 (  1251 PWs)   bands (ev):

   -22.8186 -22.7701 -22.5730 -21.5216 -20.5647 -19.8608  -5.7998  -5.7742
    -5.7678   4.4548   9.9705  11.7710  11.7763  11.8246  11.9681  11.9856
    12.0951  12.1579  12.2626  12.2644  12.9676  14.0501  14.1399

          k = 0.0000 0.0500 0.0500 (  1247 PWs)   bands (ev):

   -22.5755 -22.2997 -21.8366 -20.4257 -20.1330 -19.5130  -5.7812  -5.7697
    -5.7668   4.4128  10.0536  11.7983  11.8101  11.8264  12.0191  12.0221
    12.0830  12.1782  12.2059  12.2456  12.9426  14.0987  14.1378

          k = 0.0000 0.0250 0.0250 (  1243 PWs)   bands (ev):

   -22.5765 -21.2544 -21.2542 -19.4676 -19.4675 -19.4673  -5.7699  -5.7670
    -5.7663   4.3874  10.1092  11.8290  11.8295  11.8296  12.0567  12.0582
    12.0745  12.1879  12.2084  12.2088  12.9363  14.1292  14.1393

          k = 0.0000 0.0000 0.0000 (  1243 PWs)   bands (ev):

   -22.5769 -21.2582 -21.2582 -19.4712 -19.4712 -19.4712  -5.7661  -5.7661
    -5.7661   4.3788  10.1258  11.8282  11.8282  11.8282  12.0714  12.0714
    12.0714  12.1877  12.1877  12.1877  12.9269  14.1394  14.1394

     Writing output data file LaH3.save/

     init_run     :      1.22s CPU      1.28s WALL (       1 calls)
     electrons    :     18.58s CPU     19.44s WALL (       1 calls)

     Called by init_run:
     wfcinit      :      0.00s CPU      0.00s WALL (       1 calls)
     wfcinit:atom :      0.03s CPU      0.03s WALL (     101 calls)
     wfcinit:wfcr :      1.43s CPU      1.55s WALL (     101 calls)
     potinit      :      0.67s CPU      0.69s WALL (       1 calls)
     hinit0       :      0.44s CPU      0.45s WALL (       1 calls)

     Called by electrons:
     c_bands      :     18.58s CPU     19.43s WALL (       1 calls)
     v_of_rho     :      0.01s CPU      0.01s WALL (       1 calls)
     v_h          :      0.00s CPU      0.00s WALL (       1 calls)
     v_xc         :      0.01s CPU      0.01s WALL (       1 calls)
     newd         :      0.03s CPU      0.05s WALL (       1 calls)
     PAW_pot      :      0.66s CPU      0.68s WALL (       1 calls)

     Called by c_bands:
     init_us_2    :      0.04s CPU      0.04s WALL (     101 calls)
     cegterg      :     16.86s CPU     17.59s WALL (     101 calls)

     Called by sum_band:

     Called by *egterg:
     h_psi        :      9.41s CPU     10.13s WALL (    1299 calls)
     s_psi        :      0.55s CPU      0.58s WALL (    1299 calls)
     g_psi        :      0.04s CPU      0.04s WALL (    1097 calls)
     cdiaghg      :      3.83s CPU      3.87s WALL (    1198 calls)
     cegterg:over :      2.04s CPU      2.09s WALL (    1097 calls)
     cegterg:upda :      1.05s CPU      1.05s WALL (    1097 calls)
     cegterg:last :      0.99s CPU      0.99s WALL (     285 calls)

     Called by h_psi:
     h_psi:pot    :      9.39s CPU     10.10s WALL (    1299 calls)
     h_psi:calbec :      0.70s CPU      0.76s WALL (    1299 calls)
     vloc_psi     :      8.12s CPU      8.74s WALL (    1299 calls)
     add_vuspsi   :      0.55s CPU      0.59s WALL (    1299 calls)

     General routines
     calbec       :      0.70s CPU      0.76s WALL (    1299 calls)
     fft          :      0.00s CPU      0.00s WALL (      12 calls)
     fftw         :      7.52s CPU      8.09s WALL (   39724 calls)
     davcio       :      0.01s CPU      0.01s WALL (     202 calls)

     Parallel routines
     fft_scatt_xy :      0.86s CPU      0.92s WALL (   39736 calls)
     fft_scatt_yz :      1.60s CPU      1.73s WALL (   39736 calls)

     PAW routines
     PAW_pot      :      0.66s CPU      0.68s WALL (       1 calls)

     PWSCF        :     22.69s CPU     23.76s WALL


   This run was terminated on:   3:32:38  13Dec2019            

=------------------------------------------------------------------------------=
   JOB DONE.
=------------------------------------------------------------------------------=
