
     Program BANDS v.6.4.1 starts on 13Dec2019 at  4:11:57 

     This program is part of the open-source Quantum ESPRESSO suite
     for quantum simulation of materials; please cite
         "P. Giannozzi et al., J. Phys.:Condens. Matter 21 395502 (2009);
         "P. Giannozzi et al., J. Phys.:Condens. Matter 29 465901 (2017);
          URL http://www.quantum-espresso.org", 
     in publications or presentations arising from this work. More details at
     http://www.quantum-espresso.org/quote

     Parallel version (MPI), running on     4 processors

     MPI processes distributed on     1 nodes
     R & G space division:  proc/nbgrp/npool/nimage =       4

     Reading data from directory:
     ./outdir/LaH3.save/

     IMPORTANT: XC functional enforced from input :
     Exchange-correlation      = PBE ( 1  4  3  4 0 0)
     Any further DFT definition will be discarded
     Please, verify this is what you really want

               file La.pbe-spdfn-kjpaw_psl.1.0.0.UPF: wavefunction(s)  5S 5D 4F renormalized
               file H.pbe-kjpaw_psl.1.0.0.UPF: wavefunction(s)  1S renormalized

     Parallelization info
     --------------------
     sticks:   dense  smooth     PW     G-vecs:    dense   smooth      PW
     Min         153     153     46                 2519     2519     420
     Max         154     154     47                 2521     2521     423
     Sum         613     613    187                10081    10081    1687


     Check: negative core charge=   -0.000012
     high-symmetry point:  0.0000 0.0000 1.0000   x coordinate   0.0000
     high-symmetry point:  0.0000 0.0000 0.0000   x coordinate   1.0000
     high-symmetry point:  0.5000 0.5000 0.5000   x coordinate   1.8660
     high-symmetry point:  0.0000 0.5000 1.0000   x coordinate   2.5731
     high-symmetry point:  0.0000 0.7500 0.7500   x coordinate   2.9267
     high-symmetry point:  0.0000 0.0000 0.0000   x coordinate   3.9873

     Plottable bands (eV) written to file LaH3.bands.dat.gnu
     Bands written to file LaH3.bands.dat

 **************************************************************************

                    xk=(   0.00000,   0.00000,   1.00000  )

     point group D_2d (-42m)
     there are  5 classes
     the character table:

       E     2S4   C2    2C2'  2s_d 
A_1    1.00  1.00  1.00  1.00  1.00
A_2    1.00  1.00  1.00 -1.00 -1.00
B_1    1.00 -1.00  1.00  1.00 -1.00
B_2    1.00 -1.00  1.00 -1.00  1.00
E      2.00  0.00 -2.00  0.00  0.00

     the symmetry operations in each class and the name of the first element:

     E        1
                                                                 
     2S4      7    8
                                                                 
     C2       2
                                                                 
     2C2'     3    4
                                                                 
     2s_d     5    6
                                                                 

     Band symmetry, D_2d (-42m) point group:

     e(  1 -  1) =    -28.16531  eV     1   --> B_2  X_3  W_2  
     e(  2 -  2) =    -26.79596  eV     1   --> A_1  X_1  W_1  
     e(  3 -  3) =    -25.90545  eV     1   --> B_1  X_2  W_1' 
     e(  4 -  4) =    -22.44953  eV     1   --> A_1  X_1  W_1  
     e(  5 -  6) =    -19.12495  eV     2   --> E    X_5  W_3  
     e(  7 -  7) =     -6.57873  eV     1   --> B_2  X_3  W_2  
     e(  8 -  9) =     -6.04910  eV     2   --> E    X_5  W_3  
     e( 10 - 10) =      6.32897  eV     1   --> A_1  X_1  W_1  
     e( 11 - 11) =      6.84862  eV     1   --> B_2  X_3  W_2  
     e( 12 - 12) =     11.37030  eV     1   --> B_2  X_3  W_2  
     e( 13 - 14) =     11.70230  eV     2   --> E    X_5  W_3  
     e( 15 - 15) =     11.89475  eV     1   --> A_1  X_1  W_1  
     e( 16 - 17) =     12.03882  eV     2   --> E    X_5  W_3  
     e( 18 - 18) =     12.10196  eV     1   --> A_2  X_4  W_2' 
     e( 19 - 19) =     12.64859  eV     1   --> B_2  X_3  W_2  
     e( 20 - 20) =     15.62962  eV     1   --> B_1  X_2  W_1' 
     e( 21 - 22) =     15.95845  eV     2   --> E    X_5  W_3  
     e( 23 - 23) =     16.87787  eV     1   --> A_1  X_1  W_1  

 **************************************************************************

 **************************************************************************

                    xk=(   0.00000,   0.00000,   0.95000  )

     point group C_2v (mm2) 
     there are  4 classes
     the character table:

       E     C2    s_v   s_v' 
A_1    1.00  1.00  1.00  1.00
A_2    1.00  1.00 -1.00 -1.00
B_1    1.00 -1.00  1.00 -1.00
B_2    1.00 -1.00 -1.00  1.00

     the symmetry operations in each class and the name of the first element:

     E        1
                                                                 
     C2       2
                                                                 
     s_v      3
                                                                 
     s_v'     4
                                                                 

     Band symmetry, C_2v (mm2)  point group:

     e(  1 -  1) =    -30.27717  eV     1   --> A_1  D_1  S_1  
     e(  2 -  2) =    -27.09829  eV     1   --> A_1  D_1  S_1  
     e(  3 -  3) =    -26.74659  eV     1   --> A_2  D_2  S_2  
     e(  4 -  5) =    -22.47631  eV     2   --> B_1  D_3  S_3  
     e(  4 -  5) =    -22.47631  eV     2   --> B_2  D_4  S_4  
     e(  6 -  6) =    -22.45041  eV     1   --> A_1  D_1  S_1  
     e(  7 -  7) =     -6.57466  eV     1   --> A_1  D_1  S_1  
     e(  8 -  9) =     -6.04744  eV     2   --> B_1  D_3  S_3  
     e(  8 -  9) =     -6.04744  eV     2   --> B_2  D_4  S_4  
     e( 10 - 10) =      6.32439  eV     1   --> A_1  D_1  S_1  
     e( 11 - 11) =      6.86454  eV     1   --> A_1  D_1  S_1  
     e( 12 - 12) =     11.34924  eV     1   --> A_1  D_1  S_1  
     e( 13 - 14) =     11.65165  eV     2   --> B_1  D_3  S_3  
     e( 13 - 14) =     11.65165  eV     2   --> B_2  D_4  S_4  
     e( 15 - 15) =     11.78239  eV     1   --> A_1  D_1  S_1  
     e( 16 - 17) =     11.97791  eV     2   --> B_1  D_3  S_3  
     e( 16 - 17) =     11.97791  eV     2   --> B_2  D_4  S_4  
     e( 18 - 18) =     11.98002  eV     1   --> A_2  D_2  S_2  
     e( 19 - 19) =     12.62290  eV     1   --> A_1  D_1  S_1  
     e( 20 - 20) =     15.61779  eV     1   --> A_2  D_2  S_2  
     e( 21 - 22) =     15.87661  eV     2   --> B_1  D_3  S_3  
     e( 21 - 22) =     15.87661  eV     2   --> B_2  D_4  S_4  
     e( 23 - 23) =     16.84146  eV     1   --> A_1  D_1  S_1  

 **************************************************************************

 **************************************************************************

                    xk=(   0.00000,   0.00000,   0.90000  )

     Band symmetry, C_2v (mm2)  point group:

     e(  1 -  1) =    -30.29844  eV     1   --> A_1  D_1  S_1  
     e(  2 -  2) =    -26.99428  eV     1   --> A_1  D_1  S_1  
     e(  3 -  3) =    -26.03583  eV     1   --> A_2  D_2  S_2  
     e(  4 -  4) =    -22.45273  eV     1   --> A_1  D_1  S_1  
     e(  5 -  6) =    -21.35052  eV     2   --> B_1  D_3  S_3  
     e(  5 -  6) =    -21.35052  eV     2   --> B_2  D_4  S_4  
     e(  7 -  7) =     -6.56249  eV     1   --> A_1  D_1  S_1  
     e(  8 -  9) =     -6.04243  eV     2   --> B_1  D_3  S_3  
     e(  8 -  9) =     -6.04243  eV     2   --> B_2  D_4  S_4  
     e( 10 - 10) =      6.31035  eV     1   --> A_1  D_1  S_1  
     e( 11 - 11) =      6.91322  eV     1   --> A_1  D_1  S_1  
     e( 12 - 12) =     11.33823  eV     1   --> A_1  D_1  S_1  
     e( 13 - 14) =     11.65909  eV     2   --> B_1  D_3  S_3  
     e( 13 - 14) =     11.65909  eV     2   --> B_2  D_4  S_4  
     e( 15 - 15) =     11.77649  eV     1   --> A_1  D_1  S_1  
     e( 16 - 17) =     11.98806  eV     2   --> B_1  D_3  S_3  
     e( 16 - 17) =     11.98806  eV     2   --> B_2  D_4  S_4  
     e( 18 - 18) =     12.06020  eV     1   --> A_2  D_2  S_2  
     e( 19 - 19) =     12.58808  eV     1   --> A_1  D_1  S_1  
     e( 20 - 20) =     15.58952  eV     1   --> A_2  D_2  S_2  
     e( 21 - 22) =     15.68837  eV     2   --> B_1  D_3  S_3  
     e( 21 - 22) =     15.68837  eV     2   --> B_2  D_4  S_4  
     e( 23 - 23) =     16.73948  eV     1   --> A_1  D_1  S_1  

 **************************************************************************

 **************************************************************************

                    xk=(   0.00000,   0.00000,   0.85000  )

     Band symmetry, C_2v (mm2)  point group:

     e(  1 -  1) =    -29.73544  eV     1   --> A_1  D_1  S_1  
     e(  2 -  2) =    -26.06125  eV     1   --> A_1  D_1  S_1  
     e(  3 -  3) =    -22.52231  eV     1   --> A_2  D_2  S_2  
     e(  4 -  4) =    -22.45657  eV     1   --> A_1  D_1  S_1  
     e(  5 -  6) =    -20.56727  eV     2   --> B_1  D_3  S_3  
     e(  5 -  6) =    -20.56727  eV     2   --> B_2  D_4  S_4  
     e(  7 -  7) =     -6.54236  eV     1   --> A_1  D_1  S_1  
     e(  8 -  9) =     -6.03417  eV     2   --> B_1  D_3  S_3  
     e(  8 -  9) =     -6.03417  eV     2   --> B_2  D_4  S_4  
     e( 10 - 10) =      6.28539  eV     1   --> A_1  D_1  S_1  
     e( 11 - 11) =      6.99357  eV     1   --> A_1  D_1  S_1  
     e( 12 - 12) =     11.32891  eV     1   --> A_1  D_1  S_1  
     e( 13 - 14) =     11.72668  eV     2   --> B_1  D_3  S_3  
     e( 13 - 14) =     11.72668  eV     2   --> B_2  D_4  S_4  
     e( 15 - 15) =     11.79090  eV     1   --> A_1  D_1  S_1  
     e( 16 - 17) =     12.00567  eV     2   --> B_1  D_3  S_3  
     e( 16 - 17) =     12.00567  eV     2   --> B_2  D_4  S_4  
     e( 18 - 18) =     12.14351  eV     1   --> A_2  D_2  S_2  
     e( 19 - 19) =     12.55635  eV     1   --> A_1  D_1  S_1  
     e( 20 - 21) =     15.42939  eV     2   --> B_1  D_3  S_3  
     e( 20 - 21) =     15.42939  eV     2   --> B_2  D_4  S_4  
     e( 22 - 22) =     15.55193  eV     1   --> A_2  D_2  S_2  
     e( 23 - 23) =     16.58237  eV     1   --> A_1  D_1  S_1  

 **************************************************************************

 **************************************************************************

                    xk=(   0.00000,   0.00000,   0.80000  )

     Band symmetry, C_2v (mm2)  point group:

     e(  1 -  1) =    -29.72025  eV     1   --> A_1  D_1  S_1  
     e(  2 -  2) =    -22.77262  eV     1   --> A_2  D_2  S_2  
     e(  3 -  3) =    -22.46293  eV     1   --> A_1  D_1  S_1  
     e(  4 -  4) =    -21.94963  eV     1   --> A_1  D_1  S_1  
     e(  5 -  6) =    -20.86107  eV     2   --> B_1  D_3  S_3  
     e(  5 -  6) =    -20.86107  eV     2   --> B_2  D_4  S_4  
     e(  7 -  7) =     -6.51447  eV     1   --> A_1  D_1  S_1  
     e(  8 -  9) =     -6.02289  eV     2   --> B_1  D_3  S_3  
     e(  8 -  9) =     -6.02289  eV     2   --> B_2  D_4  S_4  
     e( 10 - 10) =      6.24736  eV     1   --> A_1  D_1  S_1  
     e( 11 - 11) =      7.10458  eV     1   --> A_1  D_1  S_1  
     e( 12 - 12) =     11.35067  eV     1   --> A_1  D_1  S_1  
     e( 13 - 14) =     11.71634  eV     2   --> B_1  D_3  S_3  
     e( 13 - 14) =     11.71634  eV     2   --> B_2  D_4  S_4  
     e( 15 - 15) =     11.80016  eV     1   --> A_1  D_1  S_1  
     e( 16 - 17) =     12.01672  eV     2   --> B_1  D_3  S_3  
     e( 16 - 17) =     12.01672  eV     2   --> B_2  D_4  S_4  
     e( 18 - 18) =     12.11177  eV     1   --> A_2  D_2  S_2  
     e( 19 - 19) =     12.60266  eV     1   --> A_1  D_1  S_1  
     e( 20 - 21) =     15.14405  eV     2   --> B_1  D_3  S_3  
     e( 20 - 21) =     15.14405  eV     2   --> B_2  D_4  S_4  
     e( 22 - 22) =     15.48461  eV     1   --> A_2  D_2  S_2  
     e( 23 - 23) =     16.39289  eV     1   --> A_1  D_1  S_1  

 **************************************************************************

 **************************************************************************

                    xk=(   0.00000,   0.00000,   0.75000  )

     Band symmetry, C_2v (mm2)  point group:

     e(  1 -  1) =    -30.12476  eV     1   --> A_1  D_1  S_1  
     e(  2 -  2) =    -24.16312  eV     1   --> A_2  D_2  S_2  
     e(  3 -  3) =    -23.98640  eV     1   --> A_1  D_1  S_1  
     e(  4 -  5) =    -23.96658  eV     2   --> B_1  D_3  S_3  
     e(  4 -  5) =    -23.96658  eV     2   --> B_2  D_4  S_4  
     e(  6 -  6) =    -22.46831  eV     1   --> A_1  D_1  S_1  
     e(  7 -  7) =     -6.47932  eV     1   --> A_1  D_1  S_1  
     e(  8 -  9) =     -6.00885  eV     2   --> B_1  D_3  S_3  
     e(  8 -  9) =     -6.00885  eV     2   --> B_2  D_4  S_4  
     e( 10 - 10) =      6.19326  eV     1   --> A_1  D_1  S_1  
     e( 11 - 11) =      7.24149  eV     1   --> A_1  D_1  S_1  
     e( 12 - 12) =     11.25001  eV     1   --> A_1  D_1  S_1  
     e( 13 - 14) =     11.68187  eV     2   --> B_1  D_3  S_3  
     e( 13 - 14) =     11.68187  eV     2   --> B_2  D_4  S_4  
     e( 15 - 15) =     11.75294  eV     1   --> A_1  D_1  S_1  
     e( 16 - 17) =     11.92754  eV     2   --> B_1  D_3  S_3  
     e( 16 - 17) =     11.92754  eV     2   --> B_2  D_4  S_4  
     e( 18 - 18) =     11.98630  eV     1   --> A_2  D_2  S_2  
     e( 19 - 19) =     12.49454  eV     1   --> A_1  D_1  S_1  
     e( 20 - 21) =     14.84219  eV     2   --> B_1  D_3  S_3  
     e( 20 - 21) =     14.84219  eV     2   --> B_2  D_4  S_4  
     e( 22 - 22) =     15.40122  eV     1   --> A_2  D_2  S_2  
     e( 23 - 23) =     16.15203  eV     1   --> A_1  D_1  S_1  

 **************************************************************************

 **************************************************************************

                    xk=(   0.00000,   0.00000,   0.70000  )

     Band symmetry, C_2v (mm2)  point group:

     e(  1 -  1) =    -30.10297  eV     1   --> A_1  D_1  S_1  
     e(  2 -  2) =    -24.19181  eV     1   --> A_2  D_2  S_2  
     e(  3 -  4) =    -24.00229  eV     2   --> B_1  D_3  S_3  
     e(  3 -  4) =    -24.00229  eV     2   --> B_2  D_4  S_4  
     e(  5 -  5) =    -23.98402  eV     1   --> A_1  D_1  S_1  
     e(  6 -  6) =    -22.47596  eV     1   --> A_1  D_1  S_1  
     e(  7 -  7) =     -6.43723  eV     1   --> A_1  D_1  S_1  
     e(  8 -  9) =     -5.99234  eV     2   --> B_1  D_3  S_3  
     e(  8 -  9) =     -5.99234  eV     2   --> B_2  D_4  S_4  
     e( 10 - 10) =      6.12048  eV     1   --> A_1  D_1  S_1  
     e( 11 - 11) =      7.40419  eV     1   --> A_1  D_1  S_1  
     e( 12 - 12) =     11.17840  eV     1   --> A_1  D_1  S_1  
     e( 13 - 14) =     11.67365  eV     2   --> B_1  D_3  S_3  
     e( 13 - 14) =     11.67365  eV     2   --> B_2  D_4  S_4  
     e( 15 - 15) =     11.76694  eV     1   --> A_1  D_1  S_1  
     e( 16 - 17) =     11.91429  eV     2   --> B_1  D_3  S_3  
     e( 16 - 17) =     11.91429  eV     2   --> B_2  D_4  S_4  
     e( 18 - 18) =     11.99193  eV     1   --> A_2  D_2  S_2  
     e( 19 - 19) =     12.46355  eV     1   --> A_1  D_1  S_1  
     e( 20 - 21) =     14.54461  eV     2   --> B_1  D_3  S_3  
     e( 20 - 21) =     14.54461  eV     2   --> B_2  D_4  S_4  
     e( 22 - 22) =     15.30515  eV     1   --> A_2  D_2  S_2  
     e( 23 - 23) =     15.89122  eV     1   --> A_1  D_1  S_1  

 **************************************************************************

 **************************************************************************

                    xk=(   0.00000,   0.00000,   0.65000  )

     Band symmetry, C_2v (mm2)  point group:

     e(  1 -  1) =    -28.33612  eV     1   --> A_1  D_1  S_1  
     e(  2 -  2) =    -24.76168  eV     1   --> A_1  D_1  S_1  
     e(  3 -  3) =    -23.98813  eV     1   --> A_2  D_2  S_2  
     e(  4 -  4) =    -22.48454  eV     1   --> A_1  D_1  S_1  
     e(  5 -  6) =    -21.76241  eV     2   --> B_1  D_3  S_3  
     e(  5 -  6) =    -21.76241  eV     2   --> B_2  D_4  S_4  
     e(  7 -  7) =     -6.38885  eV     1   --> A_1  D_1  S_1  
     e(  8 -  9) =     -5.97371  eV     2   --> B_1  D_3  S_3  
     e(  8 -  9) =     -5.97371  eV     2   --> B_2  D_4  S_4  
     e( 10 - 10) =      6.02736  eV     1   --> A_1  D_1  S_1  
     e( 11 - 11) =      7.59245  eV     1   --> A_1  D_1  S_1  
     e( 12 - 12) =     11.12871  eV     1   --> A_1  D_1  S_1  
     e( 13 - 14) =     11.68440  eV     2   --> B_1  D_3  S_3  
     e( 13 - 14) =     11.68440  eV     2   --> B_2  D_4  S_4  
     e( 15 - 15) =     11.92907  eV     1   --> A_1  D_1  S_1  
     e( 16 - 17) =     11.93960  eV     2   --> B_1  D_3  S_3  
     e( 16 - 17) =     11.93960  eV     2   --> B_2  D_4  S_4  
     e( 18 - 18) =     12.02427  eV     1   --> A_2  D_2  S_2  
     e( 19 - 19) =     12.45445  eV     1   --> A_1  D_1  S_1  
     e( 20 - 21) =     14.26085  eV     2   --> B_1  D_3  S_3  
     e( 20 - 21) =     14.26085  eV     2   --> B_2  D_4  S_4  
     e( 22 - 22) =     15.20073  eV     1   --> A_2  D_2  S_2  
     e( 23 - 23) =     15.62100  eV     1   --> A_1  D_1  S_1  

 **************************************************************************

 **************************************************************************

                    xk=(   0.00000,   0.00000,   0.60000  )

     Band symmetry, C_2v (mm2)  point group:

     e(  1 -  1) =    -28.44201  eV     1   --> A_1  D_1  S_1  
     e(  2 -  2) =    -26.45397  eV     1   --> A_2  D_2  S_2  
     e(  3 -  3) =    -24.78289  eV     1   --> A_1  D_1  S_1  
     e(  4 -  5) =    -23.81733  eV     2   --> B_1  D_3  S_3  
     e(  4 -  5) =    -23.81733  eV     2   --> B_2  D_4  S_4  
     e(  6 -  6) =    -22.49382  eV     1   --> A_1  D_1  S_1  
     e(  7 -  7) =     -6.33501  eV     1   --> A_1  D_1  S_1  
     e(  8 -  9) =     -5.95349  eV     2   --> B_1  D_3  S_3  
     e(  8 -  9) =     -5.95349  eV     2   --> B_2  D_4  S_4  
     e( 10 - 10) =      5.91122  eV     1   --> A_1  D_1  S_1  
     e( 11 - 11) =      7.79640  eV     1   --> A_1  D_1  S_1  
     e( 12 - 12) =     11.07340  eV     1   --> A_1  D_1  S_1  
     e( 13 - 14) =     11.63615  eV     2   --> B_1  D_3  S_3  
     e( 13 - 14) =     11.63615  eV     2   --> B_2  D_4  S_4  
     e( 15 - 15) =     11.86875  eV     1   --> A_2  D_2  S_2  
     e( 16 - 16) =     11.92995  eV     1   --> A_1  D_1  S_1  
     e( 17 - 18) =     11.93174  eV     2   --> B_1  D_3  S_3  
     e( 17 - 18) =     11.93174  eV     2   --> B_2  D_4  S_4  
     e( 19 - 19) =     12.42350  eV     1   --> A_1  D_1  S_1  
     e( 20 - 21) =     13.98487  eV     2   --> B_1  D_3  S_3  
     e( 20 - 21) =     13.98487  eV     2   --> B_2  D_4  S_4  
     e( 22 - 22) =     15.08753  eV     1   --> A_2  D_2  S_2  
     e( 23 - 23) =     15.34402  eV     1   --> A_1  D_1  S_1  

 **************************************************************************

 **************************************************************************

                    xk=(   0.00000,   0.00000,   0.55000  )

     Band symmetry, C_2v (mm2)  point group:

     e(  1 -  1) =    -28.62554  eV     1   --> A_1  D_1  S_1  
     e(  2 -  2) =    -26.88201  eV     1   --> A_2  D_2  S_2  
     e(  3 -  3) =    -26.17487  eV     1   --> A_1  D_1  S_1  
     e(  4 -  5) =    -26.07913  eV     2   --> B_1  D_3  S_3  
     e(  4 -  5) =    -26.07913  eV     2   --> B_2  D_4  S_4  
     e(  6 -  6) =    -22.50369  eV     1   --> A_1  D_1  S_1  
     e(  7 -  7) =     -6.27670  eV     1   --> A_1  D_1  S_1  
     e(  8 -  9) =     -5.93209  eV     2   --> B_1  D_3  S_3  
     e(  8 -  9) =     -5.93209  eV     2   --> B_2  D_4  S_4  
     e( 10 - 10) =      5.77394  eV     1   --> A_1  D_1  S_1  
     e( 11 - 11) =      8.01559  eV     1   --> A_1  D_1  S_1  
     e( 12 - 12) =     11.06375  eV     1   --> A_1  D_1  S_1  
     e( 13 - 14) =     11.61724  eV     2   --> B_1  D_3  S_3  
     e( 13 - 14) =     11.61724  eV     2   --> B_2  D_4  S_4  
     e( 15 - 15) =     11.81599  eV     1   --> A_2  D_2  S_2  
     e( 16 - 17) =     11.82409  eV     2   --> B_1  D_3  S_3  
     e( 16 - 17) =     11.82409  eV     2   --> B_2  D_4  S_4  
     e( 18 - 18) =     11.90769  eV     1   --> A_1  D_1  S_1  
     e( 19 - 19) =     12.45700  eV     1   --> A_1  D_1  S_1  
     e( 20 - 21) =     13.72348  eV     2   --> B_1  D_3  S_3  
     e( 20 - 21) =     13.72348  eV     2   --> B_2  D_4  S_4  
     e( 22 - 22) =     14.97008  eV     1   --> A_2  D_2  S_2  
     e( 23 - 23) =     15.07020  eV     1   --> A_1  D_1  S_1  

 **************************************************************************

 **************************************************************************

                    xk=(   0.00000,   0.00000,   0.50000  )

     Band symmetry, C_2v (mm2)  point group:

     e(  1 -  1) =    -28.58930  eV     1   --> A_1  D_1  S_1  
     e(  2 -  2) =    -26.91272  eV     1   --> A_2  D_2  S_2  
     e(  3 -  3) =    -26.11601  eV     1   --> A_1  D_1  S_1  
     e(  4 -  5) =    -26.09950  eV     2   --> B_1  D_3  S_3  
     e(  4 -  5) =    -26.09950  eV     2   --> B_2  D_4  S_4  
     e(  6 -  6) =    -22.51365  eV     1   --> A_1  D_1  S_1  
     e(  7 -  7) =     -6.21495  eV     1   --> A_1  D_1  S_1  
     e(  8 -  9) =     -5.91003  eV     2   --> B_1  D_3  S_3  
     e(  8 -  9) =     -5.91003  eV     2   --> B_2  D_4  S_4  
     e( 10 - 10) =      5.61862  eV     1   --> A_1  D_1  S_1  
     e( 11 - 11) =      8.24593  eV     1   --> A_1  D_1  S_1  
     e( 12 - 12) =     11.08881  eV     1   --> A_1  D_1  S_1  
     e( 13 - 14) =     11.61421  eV     2   --> B_1  D_3  S_3  
     e( 13 - 14) =     11.61421  eV     2   --> B_2  D_4  S_4  
     e( 15 - 16) =     11.81865  eV     2   --> B_1  D_3  S_3  
     e( 15 - 16) =     11.81865  eV     2   --> B_2  D_4  S_4  
     e( 17 - 17) =     11.82919  eV     1   --> A_2  D_2  S_2  
     e( 18 - 18) =     11.92805  eV     1   --> A_1  D_1  S_1  
     e( 19 - 19) =     12.52264  eV     1   --> A_1  D_1  S_1  
     e( 20 - 21) =     13.47949  eV     2   --> B_1  D_3  S_3  
     e( 20 - 21) =     13.47949  eV     2   --> B_2  D_4  S_4  
     e( 22 - 22) =     14.80442  eV     1   --> A_1  D_1  S_1  
     e( 23 - 23) =     14.85156  eV     1   --> A_2  D_2  S_2  

 **************************************************************************

 **************************************************************************

                    xk=(   0.00000,   0.00000,   0.45000  )

     Band symmetry, C_2v (mm2)  point group:

     e(  1 -  1) =    -30.10581  eV     1   --> A_1  D_1  S_1  
     e(  2 -  3) =    -29.75969  eV     2   --> B_1  D_3  S_3  
     e(  2 -  3) =    -29.75969  eV     2   --> B_2  D_4  S_4  
     e(  4 -  4) =    -29.22266  eV     1   --> A_1  D_1  S_1  
     e(  5 -  5) =    -27.53863  eV     1   --> A_2  D_2  S_2  
     e(  6 -  6) =    -22.52370  eV     1   --> A_1  D_1  S_1  
     e(  7 -  7) =     -6.15123  eV     1   --> A_1  D_1  S_1  
     e(  8 -  9) =     -5.88789  eV     2   --> B_1  D_3  S_3  
     e(  8 -  9) =     -5.88789  eV     2   --> B_2  D_4  S_4  
     e( 10 - 10) =      5.44964  eV     1   --> A_1  D_1  S_1  
     e( 11 - 11) =      8.47509  eV     1   --> A_1  D_1  S_1  
     e( 12 - 12) =     11.06190  eV     1   --> A_1  D_1  S_1  
     e( 13 - 14) =     11.58910  eV     2   --> B_1  D_3  S_3  
     e( 13 - 14) =     11.58910  eV     2   --> B_2  D_4  S_4  
     e( 15 - 16) =     11.71394  eV     2   --> B_1  D_3  S_3  
     e( 15 - 16) =     11.71394  eV     2   --> B_2  D_4  S_4  
     e( 17 - 17) =     11.76757  eV     1   --> A_2  D_2  S_2  
     e( 18 - 18) =     11.77193  eV     1   --> A_1  D_1  S_1  
     e( 19 - 19) =     12.47041  eV     1   --> A_1  D_1  S_1  
     e( 20 - 21) =     13.24870  eV     2   --> B_1  D_3  S_3  
     e( 20 - 21) =     13.24870  eV     2   --> B_2  D_4  S_4  
     e( 22 - 22) =     14.54505  eV     1   --> A_1  D_1  S_1  
     e( 23 - 23) =     14.73445  eV     1   --> A_2  D_2  S_2  

 **************************************************************************

 **************************************************************************

                    xk=(   0.00000,   0.00000,   0.40000  )

     Band symmetry, C_2v (mm2)  point group:

     e(  1 -  1) =    -30.07591  eV     1   --> A_1  D_1  S_1  
     e(  2 -  3) =    -29.70488  eV     2   --> B_1  D_3  S_3  
     e(  2 -  3) =    -29.70488  eV     2   --> B_2  D_4  S_4  
     e(  4 -  4) =    -27.55587  eV     1   --> A_2  D_2  S_2  
     e(  5 -  5) =    -26.20748  eV     1   --> A_1  D_1  S_1  
     e(  6 -  6) =    -22.53338  eV     1   --> A_1  D_1  S_1  
     e(  7 -  7) =     -6.08692  eV     1   --> A_1  D_1  S_1  
     e(  8 -  9) =     -5.86614  eV     2   --> B_1  D_3  S_3  
     e(  8 -  9) =     -5.86614  eV     2   --> B_2  D_4  S_4  
     e( 10 - 10) =      5.27405  eV     1   --> A_1  D_1  S_1  
     e( 11 - 11) =      8.71401  eV     1   --> A_1  D_1  S_1  
     e( 12 - 12) =     11.18357  eV     1   --> A_1  D_1  S_1  
     e( 13 - 14) =     11.58603  eV     2   --> B_1  D_3  S_3  
     e( 13 - 14) =     11.58603  eV     2   --> B_2  D_4  S_4  
     e( 15 - 16) =     11.72434  eV     2   --> B_1  D_3  S_3  
     e( 15 - 16) =     11.72434  eV     2   --> B_2  D_4  S_4  
     e( 17 - 17) =     11.78484  eV     1   --> A_2  D_2  S_2  
     e( 18 - 18) =     11.80428  eV     1   --> A_1  D_1  S_1  
     e( 19 - 19) =     12.63572  eV     1   --> A_1  D_1  S_1  
     e( 20 - 21) =     13.04049  eV     2   --> B_1  D_3  S_3  
     e( 20 - 21) =     13.04049  eV     2   --> B_2  D_4  S_4  
     e( 22 - 22) =     14.31374  eV     1   --> A_1  D_1  S_1  
     e( 23 - 23) =     14.62171  eV     1   --> A_2  D_2  S_2  

 **************************************************************************

 **************************************************************************

                    xk=(   0.00000,   0.00000,   0.35000  )

     Band symmetry, C_2v (mm2)  point group:

     e(  1 -  2) =    -31.36868  eV     2   --> B_1  D_3  S_3  
     e(  1 -  2) =    -31.36868  eV     2   --> B_2  D_4  S_4  
     e(  3 -  3) =    -30.06846  eV     1   --> A_1  D_1  S_1  
     e(  4 -  4) =    -28.92808  eV     1   --> A_1  D_1  S_1  
     e(  5 -  5) =    -27.77907  eV     1   --> A_2  D_2  S_2  
     e(  6 -  6) =    -22.54262  eV     1   --> A_1  D_1  S_1  
     e(  7 -  7) =     -6.02385  eV     1   --> A_1  D_1  S_1  
     e(  8 -  9) =     -5.84538  eV     2   --> B_1  D_3  S_3  
     e(  8 -  9) =     -5.84538  eV     2   --> B_2  D_4  S_4  
     e( 10 - 10) =      5.09813  eV     1   --> A_1  D_1  S_1  
     e( 11 - 11) =      8.94439  eV     1   --> A_1  D_1  S_1  
     e( 12 - 12) =     11.23740  eV     1   --> A_1  D_1  S_1  
     e( 13 - 14) =     11.57062  eV     2   --> B_1  D_3  S_3  
     e( 13 - 14) =     11.57062  eV     2   --> B_2  D_4  S_4  
     e( 15 - 16) =     11.62869  eV     2   --> B_1  D_3  S_3  
     e( 15 - 16) =     11.62869  eV     2   --> B_2  D_4  S_4  
     e( 17 - 17) =     11.75833  eV     1   --> A_2  D_2  S_2  
     e( 18 - 18) =     11.83073  eV     1   --> A_1  D_1  S_1  
     e( 19 - 19) =     12.71181  eV     1   --> A_1  D_1  S_1  
     e( 20 - 21) =     12.84435  eV     2   --> B_1  D_3  S_3  
     e( 20 - 21) =     12.84435  eV     2   --> B_2  D_4  S_4  
     e( 22 - 22) =     14.09755  eV     1   --> A_1  D_1  S_1  
     e( 23 - 23) =     14.51548  eV     1   --> A_2  D_2  S_2  

 **************************************************************************

 **************************************************************************

                    xk=(   0.00000,   0.00000,   0.30000  )

     Band symmetry, C_2v (mm2)  point group:

     e(  1 -  2) =    -30.05747  eV     2   --> B_1  D_3  S_3  
     e(  1 -  2) =    -30.05747  eV     2   --> B_2  D_4  S_4  
     e(  3 -  3) =    -29.91904  eV     1   --> A_1  D_1  S_1  
     e(  4 -  4) =    -27.72157  eV     1   --> A_2  D_2  S_2  
     e(  5 -  5) =    -25.42801  eV     1   --> A_1  D_1  S_1  
     e(  6 -  6) =    -22.55105  eV     1   --> A_1  D_1  S_1  
     e(  7 -  7) =     -5.96373  eV     1   --> A_1  D_1  S_1  
     e(  8 -  9) =     -5.82612  eV     2   --> B_1  D_3  S_3  
     e(  8 -  9) =     -5.82612  eV     2   --> B_2  D_4  S_4  
     e( 10 - 10) =      4.92952  eV     1   --> A_1  D_1  S_1  
     e( 11 - 11) =      9.17287  eV     1   --> A_1  D_1  S_1  
     e( 12 - 12) =     11.36936  eV     1   --> A_1  D_1  S_1  
     e( 13 - 14) =     11.58227  eV     2   --> B_1  D_3  S_3  
     e( 13 - 14) =     11.58227  eV     2   --> B_2  D_4  S_4  
     e( 15 - 16) =     11.73020  eV     2   --> B_1  D_3  S_3  
     e( 15 - 16) =     11.73020  eV     2   --> B_2  D_4  S_4  
     e( 17 - 17) =     11.79036  eV     1   --> A_2  D_2  S_2  
     e( 18 - 18) =     11.88654  eV     1   --> A_1  D_1  S_1  
     e( 19 - 20) =     12.68640  eV     2   --> B_1  D_3  S_3  
     e( 19 - 20) =     12.68640  eV     2   --> B_2  D_4  S_4  
     e( 21 - 21) =     12.84688  eV     1   --> A_1  D_1  S_1  
     e( 22 - 22) =     13.92913  eV     1   --> A_1  D_1  S_1  
     e( 23 - 23) =     14.41896  eV     1   --> A_2  D_2  S_2  

 **************************************************************************

 **************************************************************************

                    xk=(   0.00000,   0.00000,   0.25000  )

     Band symmetry, C_2v (mm2)  point group:

     e(  1 -  2) =    -28.88941  eV     2   --> B_1  D_3  S_3  
     e(  1 -  2) =    -28.88941  eV     2   --> B_2  D_4  S_4  
     e(  3 -  3) =    -27.08422  eV     1   --> A_1  D_1  S_1  
     e(  4 -  4) =    -26.48279  eV     1   --> A_1  D_1  S_1  
     e(  5 -  5) =    -25.56863  eV     1   --> A_2  D_2  S_2  
     e(  6 -  6) =    -22.55857  eV     1   --> A_1  D_1  S_1  
     e(  7 -  7) =     -5.90856  eV     1   --> A_1  D_1  S_1  
     e(  8 -  9) =     -5.80883  eV     2   --> B_1  D_3  S_3  
     e(  8 -  9) =     -5.80883  eV     2   --> B_2  D_4  S_4  
     e( 10 - 10) =      4.77463  eV     1   --> A_1  D_1  S_1  
     e( 11 - 11) =      9.39856  eV     1   --> A_1  D_1  S_1  
     e( 12 - 12) =     11.45932  eV     1   --> A_1  D_1  S_1  
     e( 13 - 14) =     11.63962  eV     2   --> B_1  D_3  S_3  
     e( 13 - 14) =     11.63962  eV     2   --> B_2  D_4  S_4  
     e( 15 - 16) =     11.75734  eV     2   --> B_1  D_3  S_3  
     e( 15 - 16) =     11.75734  eV     2   --> B_2  D_4  S_4  
     e( 17 - 17) =     11.87822  eV     1   --> A_2  D_2  S_2  
     e( 18 - 18) =     11.95866  eV     1   --> A_1  D_1  S_1  
     e( 19 - 20) =     12.54416  eV     2   --> B_1  D_3  S_3  
     e( 19 - 20) =     12.54416  eV     2   --> B_2  D_4  S_4  
     e( 21 - 21) =     12.91217  eV     1   --> A_1  D_1  S_1  
     e( 22 - 22) =     13.83313  eV     1   --> A_1  D_1  S_1  
     e( 23 - 23) =     14.34075  eV     1   --> A_2  D_2  S_2  

 **************************************************************************

 **************************************************************************

                    xk=(   0.00000,   0.00000,   0.20000  )

     Band symmetry, C_2v (mm2)  point group:

     e(  1 -  2) =    -28.29741  eV     2   --> B_1  D_3  S_3  
     e(  1 -  2) =    -28.29741  eV     2   --> B_2  D_4  S_4  
     e(  3 -  3) =    -26.11505  eV     1   --> A_1  D_1  S_1  
     e(  4 -  4) =    -24.38689  eV     1   --> A_2  D_2  S_2  
     e(  5 -  5) =    -23.39208  eV     1   --> A_1  D_1  S_1  
     e(  6 -  6) =    -22.56491  eV     1   --> A_1  D_1  S_1  
     e(  7 -  7) =     -5.86019  eV     1   --> A_1  D_1  S_1  
     e(  8 -  9) =     -5.79402  eV     2   --> B_1  D_3  S_3  
     e(  8 -  9) =     -5.79402  eV     2   --> B_2  D_4  S_4  
     e( 10 - 10) =      4.63912  eV     1   --> A_1  D_1  S_1  
     e( 11 - 11) =      9.60460  eV     1   --> A_1  D_1  S_1  
     e( 12 - 12) =     11.55441  eV     1   --> A_1  D_1  S_1  
     e( 13 - 14) =     11.66059  eV     2   --> B_1  D_3  S_3  
     e( 13 - 14) =     11.66059  eV     2   --> B_2  D_4  S_4  
     e( 15 - 16) =     11.84739  eV     2   --> B_1  D_3  S_3  
     e( 15 - 16) =     11.84739  eV     2   --> B_2  D_4  S_4  
     e( 17 - 17) =     11.91817  eV     1   --> A_2  D_2  S_2  
     e( 18 - 18) =     12.00364  eV     1   --> A_1  D_1  S_1  
     e( 19 - 20) =     12.42713  eV     2   --> B_1  D_3  S_3  
     e( 19 - 20) =     12.42713  eV     2   --> B_2  D_4  S_4  
     e( 21 - 21) =     12.93363  eV     1   --> A_1  D_1  S_1  
     e( 22 - 22) =     13.83484  eV     1   --> A_1  D_1  S_1  
     e( 23 - 23) =     14.27014  eV     1   --> A_2  D_2  S_2  

 **************************************************************************

 **************************************************************************

                    xk=(   0.00000,   0.00000,   0.15000  )

     Band symmetry, C_2v (mm2)  point group:

     e(  1 -  2) =    -26.26916  eV     2   --> B_1  D_3  S_3  
     e(  1 -  2) =    -26.26916  eV     2   --> B_2  D_4  S_4  
     e(  3 -  3) =    -26.13505  eV     1   --> A_1  D_1  S_1  
     e(  4 -  4) =    -23.50479  eV     1   --> A_2  D_2  S_2  
     e(  5 -  5) =    -22.57005  eV     1   --> A_1  D_1  S_1  
     e(  6 -  6) =    -21.80669  eV     1   --> A_1  D_1  S_1  
     e(  7 -  7) =     -5.82037  eV     1   --> A_1  D_1  S_1  
     e(  8 -  9) =     -5.78206  eV     2   --> B_1  D_3  S_3  
     e(  8 -  9) =     -5.78206  eV     2   --> B_2  D_4  S_4  
     e( 10 - 10) =      4.52837  eV     1   --> A_1  D_1  S_1  
     e( 11 - 11) =      9.80163  eV     1   --> A_1  D_1  S_1  
     e( 12 - 12) =     11.65143  eV     1   --> A_1  D_1  S_1  
     e( 13 - 14) =     11.67631  eV     2   --> B_1  D_3  S_3  
     e( 13 - 14) =     11.67631  eV     2   --> B_2  D_4  S_4  
     e( 15 - 16) =     11.90011  eV     2   --> B_1  D_3  S_3  
     e( 15 - 16) =     11.90011  eV     2   --> B_2  D_4  S_4  
     e( 17 - 17) =     12.00463  eV     1   --> A_2  D_2  S_2  
     e( 18 - 18) =     12.05368  eV     1   --> A_1  D_1  S_1  
     e( 19 - 20) =     12.31555  eV     2   --> B_1  D_3  S_3  
     e( 19 - 20) =     12.31555  eV     2   --> B_2  D_4  S_4  
     e( 21 - 21) =     12.92284  eV     1   --> A_1  D_1  S_1  
     e( 22 - 22) =     13.91940  eV     1   --> A_1  D_1  S_1  
     e( 23 - 23) =     14.21405  eV     1   --> A_2  D_2  S_2  

 **************************************************************************

 **************************************************************************

                    xk=(   0.00000,   0.00000,   0.10000  )

     Band symmetry, C_2v (mm2)  point group:

     e(  1 -  1) =    -23.24235  eV     1   --> A_1  D_1  S_1  
     e(  2 -  2) =    -22.57372  eV     1   --> A_1  D_1  S_1  
     e(  3 -  4) =    -21.58543  eV     2   --> B_1  D_3  S_3  
     e(  3 -  4) =    -21.58543  eV     2   --> B_2  D_4  S_4  
     e(  5 -  5) =    -21.33165  eV     1   --> A_2  D_2  S_2  
     e(  6 -  6) =    -19.79871  eV     1   --> A_1  D_1  S_1  
     e(  7 -  7) =     -5.79062  eV     1   --> A_1  D_1  S_1  
     e(  8 -  9) =     -5.77325  eV     2   --> B_1  D_3  S_3  
     e(  8 -  9) =     -5.77325  eV     2   --> B_2  D_4  S_4  
     e( 10 - 10) =      4.44642  eV     1   --> A_1  D_1  S_1  
     e( 11 - 11) =      9.98516  eV     1   --> A_1  D_1  S_1  
     e( 12 - 13) =     11.77754  eV     2   --> B_1  D_3  S_3  
     e( 12 - 13) =     11.77754  eV     2   --> B_2  D_4  S_4  
     e( 14 - 14) =     11.80908  eV     1   --> A_1  D_1  S_1  
     e( 15 - 16) =     11.98476  eV     2   --> B_1  D_3  S_3  
     e( 15 - 16) =     11.98476  eV     2   --> B_2  D_4  S_4  
     e( 17 - 17) =     12.07882  eV     1   --> A_1  D_1  S_1  
     e( 18 - 18) =     12.16442  eV     1   --> A_2  D_2  S_2  
     e( 19 - 20) =     12.25981  eV     2   --> B_1  D_3  S_3  
     e( 19 - 20) =     12.25981  eV     2   --> B_2  D_4  S_4  
     e( 21 - 21) =     12.95467  eV     1   --> A_1  D_1  S_1  
     e( 22 - 22) =     14.02675  eV     1   --> A_1  D_1  S_1  
     e( 23 - 23) =     14.17742  eV     1   --> A_2  D_2  S_2  

 **************************************************************************

 **************************************************************************

                    xk=(   0.00000,   0.00000,   0.05000  )

     Band symmetry, C_2v (mm2)  point group:

     e(  1 -  1) =    -22.57612  eV     1   --> A_1  D_1  S_1  
     e(  2 -  2) =    -21.25094  eV     1   --> A_2  D_2  S_2  
     e(  3 -  3) =    -21.24993  eV     1   --> A_1  D_1  S_1  
     e(  4 -  5) =    -19.46386  eV     2   --> B_1  D_3  S_3  
     e(  4 -  5) =    -19.46386  eV     2   --> B_2  D_4  S_4  
     e(  6 -  6) =    -19.46373  eV     1   --> A_1  D_1  S_1  
     e(  7 -  7) =     -5.77227  eV     1   --> A_1  D_1  S_1  
     e(  8 -  9) =     -5.76788  eV     2   --> B_1  D_3  S_3  
     e(  8 -  9) =     -5.76788  eV     2   --> B_2  D_4  S_4  
     e( 10 - 10) =      4.39590  eV     1   --> A_1  D_1  S_1  
     e( 11 - 11) =     10.09273  eV     1   --> A_1  D_1  S_1  
     e( 12 - 14) =     11.83038  eV     3   --> A_1  D_1  S_1  
     e( 12 - 14) =     11.83038  eV     3   --> B_1  D_3  S_3  
     e( 12 - 14) =     11.83038  eV     3   --> B_2  D_4  S_4  
     e( 15 - 16) =     12.04843  eV     2   --> B_1  D_3  S_3  
     e( 15 - 16) =     12.04843  eV     2   --> B_2  D_4  S_4  
     e( 17 - 17) =     12.07422  eV     1   --> A_1  D_1  S_1  
     e( 18 - 18) =     12.18694  eV     1   --> A_2  D_2  S_2  
     e( 19 - 20) =     12.22702  eV     2   --> B_1  D_3  S_3  
     e( 19 - 20) =     12.22702  eV     2   --> B_2  D_4  S_4  
     e( 21 - 21) =     12.94535  eV     1   --> A_1  D_1  S_1  
     e( 22 - 22) =     14.10945  eV     1   --> A_1  D_1  S_1  
     e( 23 - 23) =     14.14913  eV     1   --> A_2  D_2  S_2  

 **************************************************************************

 **************************************************************************

                    xk=(   0.00000,   0.00000,   0.00000  )

     point group T_d (-43m) 
     there are  5 classes
     the character table:

       E     8C3   3C2   6S4   6s_d 
A_1    1.00  1.00  1.00  1.00  1.00
A_2    1.00  1.00  1.00 -1.00 -1.00
E      2.00 -1.00  2.00  0.00  0.00
T_1    3.00  0.00 -1.00  1.00 -1.00
T_2    3.00  0.00 -1.00 -1.00  1.00

     the symmetry operations in each class and the name of the first element:

     E        1
                                                                 
     8C3      5    7    8    6   12    9   10   11
                                                                 
     3C2      2    3    4
                                                                 
     6S4     15   16   20   19   23   24
                                                                 
     6s_d    13   14   17   18   21   22
                                                                 

     Band symmetry, T_d (-43m)  point group:

     e(  1 -  1) =    -22.57690  eV     1   --> A_1  G_1  P_1  
     e(  2 -  3) =    -21.25818  eV     2   --> E    G_12 P_3  
     e(  4 -  6) =    -19.47116  eV     3   --> T_2  G_15 P_4  
     e(  7 -  9) =     -5.76608  eV     3   --> T_2  G_15 P_4  
     e( 10 - 10) =      4.37882  eV     1   --> A_1  G_1  P_1  
     e( 11 - 11) =     10.12583  eV     1   --> A_1  G_1  P_1  
     e( 12 - 14) =     11.82821  eV     3   --> T_2  G_15 P_4  
     e( 15 - 17) =     12.07143  eV     3   --> T_2  G_15 P_4  
     e( 18 - 20) =     12.18774  eV     3   --> T_1  G_25 P_5  
     e( 21 - 21) =     12.92694  eV     1   --> A_1  G_1  P_1  
     e( 22 - 23) =     14.13940  eV     2   --> E    G_12 P_3  

 **************************************************************************

 **************************************************************************

                    xk=(   0.02500,   0.02500,   0.02500  )

     point group C_3v (3m)  
     there are  3 classes
     the character table:

       E     2C3   3s_v 
A_1    1.00  1.00  1.00
A_2    1.00  1.00 -1.00
E      2.00 -1.00  0.00

     the symmetry operations in each class and the name of the first element:

     E        1
                                                                 
     2C3      2    3
                                                                 
     3s_v     4    5    6
                                                                 

     Band symmetry, C_3v (3m)   point group:

     e(  1 -  1) =    -22.57631  eV     1   --> A_1  L_1       
     e(  2 -  3) =    -21.25237  eV     2   --> E    L_3       
     e(  4 -  5) =    -19.46578  eV     2   --> E    L_3       
     e(  6 -  6) =    -19.46539  eV     1   --> A_1  L_1       
     e(  7 -  7) =     -5.77215  eV     1   --> A_1  L_1       
     e(  8 -  9) =     -5.76672  eV     2   --> E    L_3       
     e( 10 - 10) =      4.39165  eV     1   --> A_1  L_1       
     e( 11 - 11) =     10.10103  eV     1   --> A_1  L_1       
     e( 12 - 12) =     11.82929  eV     1   --> A_1  L_1       
     e( 13 - 14) =     11.83014  eV     2   --> E    L_3       
     e( 15 - 16) =     12.05154  eV     2   --> E    L_3       
     e( 17 - 17) =     12.07698  eV     1   --> A_1  L_1       
     e( 18 - 18) =     12.18826  eV     1   --> A_2  L_2       
     e( 19 - 20) =     12.21744  eV     2   --> E    L_3       
     e( 21 - 21) =     12.94101  eV     1   --> A_1  L_1       
     e( 22 - 23) =     14.13166  eV     2   --> E    L_3       

 **************************************************************************

 **************************************************************************

                    xk=(   0.05000,   0.05000,   0.05000  )

     Band symmetry, C_3v (3m)   point group:

     e(  1 -  1) =    -22.57494  eV     1   --> A_1  L_1       
     e(  2 -  2) =    -22.31994  eV     1   --> A_1  L_1       
     e(  3 -  4) =    -22.13728  eV     2   --> E    L_3       
     e(  5 -  6) =    -19.64343  eV     2   --> E    L_3       
     e(  7 -  7) =     -5.79019  eV     1   --> A_1  L_1       
     e(  8 -  9) =     -5.76862  eV     2   --> E    L_3       
     e( 10 - 10) =      4.42969  eV     1   --> A_1  L_1       
     e( 11 - 11) =     10.01820  eV     1   --> A_1  L_1       
     e( 12 - 12) =     11.79734  eV     1   --> A_1  L_1       
     e( 13 - 14) =     11.79989  eV     2   --> E    L_3       
     e( 15 - 16) =     11.99973  eV     2   --> E    L_3       
     e( 17 - 17) =     12.09159  eV     1   --> A_1  L_1       
     e( 18 - 18) =     12.18929  eV     1   --> A_2  L_2       
     e( 19 - 20) =     12.23373  eV     2   --> E    L_3       
     e( 21 - 21) =     12.94829  eV     1   --> A_1  L_1       
     e( 22 - 23) =     14.10840  eV     2   --> E    L_3       

 **************************************************************************

 **************************************************************************

                    xk=(   0.07500,   0.07500,   0.07500  )

     Band symmetry, C_3v (3m)   point group:

     e(  1 -  1) =    -26.31134  eV     1   --> A_1  L_1       
     e(  2 -  3) =    -23.88940  eV     2   --> E    L_3       
     e(  4 -  4) =    -22.57169  eV     1   --> A_1  L_1       
     e(  5 -  6) =    -20.86842  eV     2   --> E    L_3       
     e(  7 -  7) =     -5.81957  eV     1   --> A_1  L_1       
     e(  8 -  9) =     -5.77176  eV     2   --> E    L_3       
     e( 10 - 10) =      4.49187  eV     1   --> A_1  L_1       
     e( 11 - 11) =      9.88023  eV     1   --> A_1  L_1       
     e( 12 - 12) =     11.71013  eV     1   --> A_1  L_1       
     e( 13 - 14) =     11.75341  eV     2   --> E    L_3       
     e( 15 - 16) =     11.91970  eV     2   --> E    L_3       
     e( 17 - 17) =     12.08996  eV     1   --> A_1  L_1       
     e( 18 - 18) =     12.15822  eV     1   --> A_2  L_2       
     e( 19 - 20) =     12.25436  eV     2   --> E    L_3       
     e( 21 - 21) =     12.94481  eV     1   --> A_1  L_1       
     e( 22 - 23) =     14.07235  eV     2   --> E    L_3       

 **************************************************************************

 **************************************************************************

                    xk=(   0.10000,   0.10000,   0.10000  )

     Band symmetry, C_3v (3m)   point group:

     e(  1 -  1) =    -27.29844  eV     1   --> A_1  L_1       
     e(  2 -  3) =    -26.53295  eV     2   --> E    L_3       
     e(  4 -  5) =    -22.65861  eV     2   --> E    L_3       
     e(  6 -  6) =    -22.56788  eV     1   --> A_1  L_1       
     e(  7 -  7) =     -5.85925  eV     1   --> A_1  L_1       
     e(  8 -  9) =     -5.77603  eV     2   --> E    L_3       
     e( 10 - 10) =      4.57691  eV     1   --> A_1  L_1       
     e( 11 - 11) =      9.74356  eV     1   --> A_1  L_1       
     e( 12 - 13) =     11.64802  eV     2   --> E    L_3       
     e( 14 - 14) =     11.66822  eV     1   --> A_1  L_1       
     e( 15 - 16) =     11.84057  eV     2   --> E    L_3       
     e( 17 - 17) =     12.04344  eV     1   --> A_2  L_2       
     e( 18 - 18) =     12.07634  eV     1   --> A_1  L_1       
     e( 19 - 20) =     12.30110  eV     2   --> E    L_3       
     e( 21 - 21) =     13.02538  eV     1   --> A_1  L_1       
     e( 22 - 23) =     14.03102  eV     2   --> E    L_3       

 **************************************************************************

 **************************************************************************

                    xk=(   0.12500,   0.12500,   0.12500  )

     Band symmetry, C_3v (3m)   point group:

     e(  1 -  2) =    -28.05475  eV     2   --> E    L_3       
     e(  3 -  3) =    -27.35081  eV     1   --> A_1  L_1       
     e(  4 -  5) =    -23.54200  eV     2   --> E    L_3       
     e(  6 -  6) =    -22.56307  eV     1   --> A_1  L_1       
     e(  7 -  7) =     -5.90795  eV     1   --> A_1  L_1       
     e(  8 -  9) =     -5.78132  eV     2   --> E    L_3       
     e( 10 - 10) =      4.68243  eV     1   --> A_1  L_1       
     e( 11 - 11) =      9.58804  eV     1   --> A_1  L_1       
     e( 12 - 13) =     11.61592  eV     2   --> E    L_3       
     e( 14 - 14) =     11.62178  eV     1   --> A_1  L_1       
     e( 15 - 16) =     11.78392  eV     2   --> E    L_3       
     e( 17 - 17) =     12.02575  eV     1   --> A_1  L_1       
     e( 18 - 18) =     12.02993  eV     1   --> A_2  L_2       
     e( 19 - 20) =     12.36432  eV     2   --> E    L_3       
     e( 21 - 21) =     13.11608  eV     1   --> A_1  L_1       
     e( 22 - 23) =     13.99038  eV     2   --> E    L_3       

 **************************************************************************

 **************************************************************************

                    xk=(   0.15000,   0.15000,   0.15000  )

     Band symmetry, C_3v (3m)   point group:

     e(  1 -  2) =    -28.04014  eV     2   --> E    L_3       
     e(  3 -  3) =    -27.35460  eV     1   --> A_1  L_1       
     e(  4 -  5) =    -23.53341  eV     2   --> E    L_3       
     e(  6 -  6) =    -22.55737  eV     1   --> A_1  L_1       
     e(  7 -  7) =     -5.96414  eV     1   --> A_1  L_1       
     e(  8 -  9) =     -5.78748  eV     2   --> E    L_3       
     e( 10 - 10) =      4.80603  eV     1   --> A_1  L_1       
     e( 11 - 11) =      9.44198  eV     1   --> A_1  L_1       
     e( 12 - 12) =     11.58266  eV     1   --> A_1  L_1       
     e( 13 - 14) =     11.62346  eV     2   --> E    L_3       
     e( 15 - 16) =     11.75732  eV     2   --> E    L_3       
     e( 17 - 17) =     12.00022  eV     1   --> A_1  L_1       
     e( 18 - 18) =     12.03020  eV     1   --> A_2  L_2       
     e( 19 - 20) =     12.43054  eV     2   --> E    L_3       
     e( 21 - 21) =     13.24180  eV     1   --> A_1  L_1       
     e( 22 - 23) =     13.96645  eV     2   --> E    L_3       

 **************************************************************************

 **************************************************************************

                    xk=(   0.17500,   0.17500,   0.17500  )

     Band symmetry, C_3v (3m)   point group:

     e(  1 -  2) =    -28.01251  eV     2   --> E    L_3       
     e(  3 -  3) =    -26.55442  eV     1   --> A_1  L_1       
     e(  4 -  5) =    -23.51395  eV     2   --> E    L_3       
     e(  6 -  6) =    -22.55097  eV     1   --> A_1  L_1       
     e(  7 -  7) =     -6.02615  eV     1   --> A_1  L_1       
     e(  8 -  9) =     -5.79436  eV     2   --> E    L_3       
     e( 10 - 10) =      4.94445  eV     1   --> A_1  L_1       
     e( 11 - 11) =      9.29588  eV     1   --> A_1  L_1       
     e( 12 - 12) =     11.54994  eV     1   --> A_1  L_1       
     e( 13 - 14) =     11.63421  eV     2   --> E    L_3       
     e( 15 - 16) =     11.74002  eV     2   --> E    L_3       
     e( 17 - 17) =     12.00493  eV     1   --> A_1  L_1       
     e( 18 - 18) =     12.03133  eV     1   --> A_2  L_2       
     e( 19 - 20) =     12.47989  eV     2   --> E    L_3       
     e( 21 - 21) =     13.36519  eV     1   --> A_1  L_1       
     e( 22 - 23) =     13.96691  eV     2   --> E    L_3       

 **************************************************************************

 **************************************************************************

                    xk=(   0.20000,   0.20000,   0.20000  )

     Band symmetry, C_3v (3m)   point group:

     e(  1 -  2) =    -30.16425  eV     2   --> E    L_3       
     e(  3 -  3) =    -27.50728  eV     1   --> A_1  L_1       
     e(  4 -  5) =    -26.81502  eV     2   --> E    L_3       
     e(  6 -  6) =    -22.54418  eV     1   --> A_1  L_1       
     e(  7 -  7) =     -6.09225  eV     1   --> A_1  L_1       
     e(  8 -  9) =     -5.80185  eV     2   --> E    L_3       
     e( 10 - 10) =      5.09378  eV     1   --> A_1  L_1       
     e( 11 - 11) =      9.13836  eV     1   --> A_1  L_1       
     e( 12 - 12) =     11.43647  eV     1   --> A_1  L_1       
     e( 13 - 14) =     11.51682  eV     2   --> E    L_3       
     e( 15 - 16) =     11.67670  eV     2   --> E    L_3       
     e( 17 - 17) =     11.88580  eV     1   --> A_2  L_2       
     e( 18 - 18) =     11.98809  eV     1   --> A_1  L_1       
     e( 19 - 20) =     12.47754  eV     2   --> E    L_3       
     e( 21 - 21) =     13.44206  eV     1   --> A_1  L_1       
     e( 22 - 23) =     13.99553  eV     2   --> E    L_3       

 **************************************************************************

 **************************************************************************

                    xk=(   0.22500,   0.22500,   0.22500  )

     Band symmetry, C_3v (3m)   point group:

     e(  1 -  2) =    -28.10483  eV     2   --> E    L_3       
     e(  3 -  4) =    -26.28503  eV     2   --> E    L_3       
     e(  5 -  5) =    -25.43811  eV     1   --> A_1  L_1       
     e(  6 -  6) =    -22.53684  eV     1   --> A_1  L_1       
     e(  7 -  7) =     -6.16056  eV     1   --> A_1  L_1       
     e(  8 -  9) =     -5.80965  eV     2   --> E    L_3       
     e( 10 - 10) =      5.25116  eV     1   --> A_1  L_1       
     e( 11 - 11) =      8.99754  eV     1   --> A_1  L_1       
     e( 12 - 12) =     11.39154  eV     1   --> A_1  L_1       
     e( 13 - 14) =     11.58939  eV     2   --> E    L_3       
     e( 15 - 16) =     11.74188  eV     2   --> E    L_3       
     e( 17 - 17) =     11.88928  eV     1   --> A_2  L_2       
     e( 18 - 18) =     11.98962  eV     1   --> A_1  L_1       
     e( 19 - 20) =     12.50543  eV     2   --> E    L_3       
     e( 21 - 21) =     13.54853  eV     1   --> A_1  L_1       
     e( 22 - 23) =     14.07053  eV     2   --> E    L_3       

 **************************************************************************

 **************************************************************************

                    xk=(   0.25000,   0.25000,   0.25000  )

     Band symmetry, C_3v (3m)   point group:

     e(  1 -  2) =    -28.15524  eV     2   --> E    L_3       
     e(  3 -  3) =    -27.69877  eV     1   --> A_1  L_1       
     e(  4 -  5) =    -26.28520  eV     2   --> E    L_3       
     e(  6 -  6) =    -22.52932  eV     1   --> A_1  L_1       
     e(  7 -  7) =     -6.22947  eV     1   --> A_1  L_1       
     e(  8 -  9) =     -5.81763  eV     2   --> E    L_3       
     e( 10 - 10) =      5.41170  eV     1   --> A_1  L_1       
     e( 11 - 11) =      8.85637  eV     1   --> A_1  L_1       
     e( 12 - 12) =     11.33397  eV     1   --> A_1  L_1       
     e( 13 - 14) =     11.59998  eV     2   --> E    L_3       
     e( 15 - 16) =     11.72593  eV     2   --> E    L_3       
     e( 17 - 17) =     11.88957  eV     1   --> A_2  L_2       
     e( 18 - 18) =     11.90026  eV     1   --> A_1  L_1       
     e( 19 - 20) =     12.47266  eV     2   --> E    L_3       
     e( 21 - 21) =     13.63985  eV     1   --> A_1  L_1       
     e( 22 - 23) =     14.17796  eV     2   --> E    L_3       

 **************************************************************************

 **************************************************************************

                    xk=(   0.27500,   0.27500,   0.27500  )

     Band symmetry, C_3v (3m)   point group:

     e(  1 -  2) =    -27.92358  eV     2   --> E    L_3       
     e(  3 -  3) =    -27.20976  eV     1   --> A_1  L_1       
     e(  4 -  5) =    -26.76591  eV     2   --> E    L_3       
     e(  6 -  6) =    -22.52179  eV     1   --> A_1  L_1       
     e(  7 -  7) =     -6.29717  eV     1   --> A_1  L_1       
     e(  8 -  9) =     -5.82559  eV     2   --> E    L_3       
     e( 10 - 10) =      5.57215  eV     1   --> A_1  L_1       
     e( 11 - 11) =      8.72948  eV     1   --> A_1  L_1       
     e( 12 - 12) =     11.29910  eV     1   --> A_1  L_1       
     e( 13 - 14) =     11.58790  eV     2   --> E    L_3       
     e( 15 - 16) =     11.75848  eV     2   --> E    L_3       
     e( 17 - 17) =     11.84979  eV     1   --> A_1  L_1       
     e( 18 - 18) =     11.85969  eV     1   --> A_2  L_2       
     e( 19 - 20) =     12.42936  eV     2   --> E    L_3       
     e( 21 - 21) =     13.73117  eV     1   --> A_1  L_1       
     e( 22 - 23) =     14.31044  eV     2   --> E    L_3       

 **************************************************************************

 **************************************************************************

                    xk=(   0.30000,   0.30000,   0.30000  )

     Band symmetry, C_3v (3m)   point group:

     e(  1 -  2) =    -25.87343  eV     2   --> E    L_3       
     e(  3 -  3) =    -24.44980  eV     1   --> A_1  L_1       
     e(  4 -  5) =    -24.15213  eV     2   --> E    L_3       
     e(  6 -  6) =    -22.51434  eV     1   --> A_1  L_1       
     e(  7 -  7) =     -6.36206  eV     1   --> A_1  L_1       
     e(  8 -  9) =     -5.83330  eV     2   --> E    L_3       
     e( 10 - 10) =      5.72838  eV     1   --> A_1  L_1       
     e( 11 - 11) =      8.61491  eV     1   --> A_1  L_1       
     e( 12 - 12) =     11.30053  eV     1   --> A_1  L_1       
     e( 13 - 14) =     11.67990  eV     2   --> E    L_3       
     e( 15 - 16) =     11.86420  eV     2   --> E    L_3       
     e( 17 - 17) =     11.89203  eV     1   --> A_2  L_2       
     e( 18 - 18) =     11.95255  eV     1   --> A_1  L_1       
     e( 19 - 20) =     12.40398  eV     2   --> E    L_3       
     e( 21 - 21) =     13.83668  eV     1   --> A_1  L_1       
     e( 22 - 23) =     14.47845  eV     2   --> E    L_3       

 **************************************************************************

 **************************************************************************

                    xk=(   0.32500,   0.32500,   0.32500  )

     Band symmetry, C_3v (3m)   point group:

     e(  1 -  2) =    -25.87766  eV     2   --> E    L_3       
     e(  3 -  3) =    -24.46333  eV     1   --> A_1  L_1       
     e(  4 -  5) =    -24.15293  eV     2   --> E    L_3       
     e(  6 -  6) =    -22.50732  eV     1   --> A_1  L_1       
     e(  7 -  7) =     -6.42287  eV     1   --> A_1  L_1       
     e(  8 -  9) =     -5.84063  eV     2   --> E    L_3       
     e( 10 - 10) =      5.87624  eV     1   --> A_1  L_1       
     e( 11 - 11) =      8.50704  eV     1   --> A_1  L_1       
     e( 12 - 12) =     11.28638  eV     1   --> A_1  L_1       
     e( 13 - 14) =     11.69341  eV     2   --> E    L_3       
     e( 15 - 16) =     11.85380  eV     2   --> E    L_3       
     e( 17 - 17) =     11.89076  eV     1   --> A_2  L_2       
     e( 18 - 18) =     11.93465  eV     1   --> A_1  L_1       
     e( 19 - 20) =     12.33348  eV     2   --> E    L_3       
     e( 21 - 21) =     13.92292  eV     1   --> A_1  L_1       
     e( 22 - 23) =     14.65359  eV     2   --> E    L_3       

 **************************************************************************

 **************************************************************************

                    xk=(   0.35000,   0.35000,   0.35000  )

     Band symmetry, C_3v (3m)   point group:

     e(  1 -  2) =    -25.87065  eV     2   --> E    L_3       
     e(  3 -  3) =    -24.46439  eV     1   --> A_1  L_1       
     e(  4 -  5) =    -24.14129  eV     2   --> E    L_3       
     e(  6 -  6) =    -22.50083  eV     1   --> A_1  L_1       
     e(  7 -  7) =     -6.47822  eV     1   --> A_1  L_1       
     e(  8 -  9) =     -5.84738  eV     2   --> E    L_3       
     e( 10 - 10) =      6.01243  eV     1   --> A_1  L_1       
     e( 11 - 11) =      8.40987  eV     1   --> A_1  L_1       
     e( 12 - 12) =     11.28332  eV     1   --> A_1  L_1       
     e( 13 - 14) =     11.71141  eV     2   --> E    L_3       
     e( 15 - 16) =     11.84981  eV     2   --> E    L_3       
     e( 17 - 17) =     11.89021  eV     1   --> A_2  L_2       
     e( 18 - 18) =     11.92404  eV     1   --> A_1  L_1       
     e( 19 - 20) =     12.26292  eV     2   --> E    L_3       
     e( 21 - 21) =     14.00885  eV     1   --> A_1  L_1       
     e( 22 - 23) =     14.83487  eV     2   --> E    L_3       

 **************************************************************************

 **************************************************************************

                    xk=(   0.37500,   0.37500,   0.37500  )

     Band symmetry, C_3v (3m)   point group:

     e(  1 -  2) =    -26.07721  eV     2   --> E    L_3       
     e(  3 -  4) =    -25.06124  eV     2   --> E    L_3       
     e(  5 -  5) =    -24.48887  eV     1   --> A_1  L_1       
     e(  6 -  6) =    -22.49503  eV     1   --> A_1  L_1       
     e(  7 -  7) =     -6.52698  eV     1   --> A_1  L_1       
     e(  8 -  9) =     -5.85339  eV     2   --> E    L_3       
     e( 10 - 10) =      6.13375  eV     1   --> A_1  L_1       
     e( 11 - 11) =      8.32377  eV     1   --> A_1  L_1       
     e( 12 - 12) =     11.28131  eV     1   --> A_1  L_1       
     e( 13 - 14) =     11.69726  eV     2   --> E    L_3       
     e( 15 - 16) =     11.84775  eV     2   --> E    L_3       
     e( 17 - 17) =     11.89036  eV     1   --> A_2  L_2       
     e( 18 - 18) =     11.91170  eV     1   --> A_1  L_1       
     e( 19 - 20) =     12.17881  eV     2   --> E    L_3       
     e( 21 - 21) =     14.08493  eV     1   --> A_1  L_1       
     e( 22 - 23) =     15.01256  eV     2   --> E    L_3       

 **************************************************************************

 **************************************************************************

                    xk=(   0.40000,   0.40000,   0.40000  )

     Band symmetry, C_3v (3m)   point group:

     e(  1 -  2) =    -25.17140  eV     2   --> E    L_3       
     e(  3 -  3) =    -23.78493  eV     1   --> A_1  L_1       
     e(  4 -  4) =    -22.48994  eV     1   --> A_1  L_1       
     e(  5 -  6) =    -21.34433  eV     2   --> E    L_3       
     e(  7 -  7) =     -6.56813  eV     1   --> A_1  L_1       
     e(  8 -  9) =     -5.85848  eV     2   --> E    L_3       
     e( 10 - 10) =      6.23766  eV     1   --> A_1  L_1       
     e( 11 - 11) =      8.25149  eV     1   --> A_1  L_1       
     e( 12 - 12) =     11.30994  eV     1   --> A_1  L_1       
     e( 13 - 14) =     11.77779  eV     2   --> E    L_3       
     e( 15 - 15) =     11.90246  eV     1   --> A_2  L_2       
     e( 16 - 16) =     11.93205  eV     1   --> A_1  L_1       
     e( 17 - 18) =     11.93883  eV     2   --> E    L_3       
     e( 19 - 20) =     12.18858  eV     2   --> E    L_3       
     e( 21 - 21) =     14.18004  eV     1   --> A_1  L_1       
     e( 22 - 23) =     15.18108  eV     2   --> E    L_3       

 **************************************************************************

 **************************************************************************

                    xk=(   0.42500,   0.42500,   0.42500  )

     Band symmetry, C_3v (3m)   point group:

     e(  1 -  2) =    -26.57178  eV     2   --> E    L_3       
     e(  3 -  3) =    -22.48652  eV     1   --> A_1  L_1       
     e(  4 -  5) =    -22.10769  eV     2   --> E    L_3       
     e(  6 -  6) =    -21.86535  eV     1   --> A_1  L_1       
     e(  7 -  7) =     -6.60098  eV     1   --> A_1  L_1       
     e(  8 -  9) =     -5.86261  eV     2   --> E    L_3       
     e( 10 - 10) =      6.32125  eV     1   --> A_1  L_1       
     e( 11 - 11) =      8.19081  eV     1   --> A_1  L_1       
     e( 12 - 12) =     11.32188  eV     1   --> A_1  L_1       
     e( 13 - 14) =     11.77039  eV     2   --> E    L_3       
     e( 15 - 15) =     11.79759  eV     1   --> A_2  L_2       
     e( 16 - 17) =     11.91346  eV     2   --> E    L_3       
     e( 18 - 18) =     11.99152  eV     1   --> A_1  L_1       
     e( 19 - 20) =     12.14156  eV     2   --> E    L_3       
     e( 21 - 21) =     14.24905  eV     1   --> A_1  L_1       
     e( 22 - 23) =     15.32193  eV     2   --> E    L_3       

 **************************************************************************

 **************************************************************************

                    xk=(   0.45000,   0.45000,   0.45000  )

     Band symmetry, C_3v (3m)   point group:

     e(  1 -  2) =    -26.69258  eV     2   --> E    L_3       
     e(  3 -  3) =    -22.48335  eV     1   --> A_1  L_1       
     e(  4 -  5) =    -22.09068  eV     2   --> E    L_3       
     e(  6 -  6) =    -21.53829  eV     1   --> A_1  L_1       
     e(  7 -  7) =     -6.62490  eV     1   --> A_1  L_1       
     e(  8 -  9) =     -5.86561  eV     2   --> E    L_3       
     e( 10 - 10) =      6.38301  eV     1   --> A_1  L_1       
     e( 11 - 11) =      8.14658  eV     1   --> A_1  L_1       
     e( 12 - 12) =     11.36457  eV     1   --> A_1  L_1       
     e( 13 - 14) =     11.77219  eV     2   --> E    L_3       
     e( 15 - 15) =     11.78324  eV     1   --> A_2  L_2       
     e( 16 - 17) =     11.91496  eV     2   --> E    L_3       
     e( 18 - 18) =     12.00120  eV     1   --> A_1  L_1       
     e( 19 - 20) =     12.10436  eV     2   --> E    L_3       
     e( 21 - 21) =     14.32410  eV     1   --> A_1  L_1       
     e( 22 - 23) =     15.43384  eV     2   --> E    L_3       

 **************************************************************************

 **************************************************************************

                    xk=(   0.47500,   0.47500,   0.47500  )

     Band symmetry, C_3v (3m)   point group:

     e(  1 -  2) =    -26.52041  eV     2   --> E    L_3       
     e(  3 -  3) =    -22.48147  eV     1   --> A_1  L_1       
     e(  4 -  5) =    -20.46588  eV     2   --> E    L_3       
     e(  6 -  6) =    -20.00163  eV     1   --> A_1  L_1       
     e(  7 -  7) =     -6.63942  eV     1   --> A_1  L_1       
     e(  8 -  9) =     -5.86744  eV     2   --> E    L_3       
     e( 10 - 10) =      6.42031  eV     1   --> A_1  L_1       
     e( 11 - 11) =      8.11878  eV     1   --> A_1  L_1       
     e( 12 - 12) =     11.37404  eV     1   --> A_1  L_1       
     e( 13 - 13) =     11.78441  eV     1   --> A_2  L_2       
     e( 14 - 15) =     11.80074  eV     2   --> E    L_3       
     e( 16 - 17) =     11.91987  eV     2   --> E    L_3       
     e( 18 - 18) =     11.98825  eV     1   --> A_1  L_1       
     e( 19 - 20) =     12.18397  eV     2   --> E    L_3       
     e( 21 - 21) =     14.36415  eV     1   --> A_1  L_1       
     e( 22 - 23) =     15.50238  eV     2   --> E    L_3       

 **************************************************************************

 **************************************************************************

                    xk=(   0.50000,   0.50000,   0.50000  )

     Band symmetry, C_3v (3m)   point group:

     e(  1 -  2) =    -26.52610  eV     2   --> E    L_3       
     e(  3 -  3) =    -22.48087  eV     1   --> A_1  L_1       
     e(  4 -  5) =    -20.47171  eV     2   --> E    L_3       
     e(  6 -  6) =    -20.00655  eV     1   --> A_1  L_1       
     e(  7 -  7) =     -6.64430  eV     1   --> A_1  L_1       
     e(  8 -  9) =     -5.86805  eV     2   --> E    L_3       
     e( 10 - 10) =      6.43299  eV     1   --> A_1  L_1       
     e( 11 - 11) =      8.10964  eV     1   --> A_1  L_1       
     e( 12 - 12) =     11.37744  eV     1   --> A_1  L_1       
     e( 13 - 13) =     11.78409  eV     1   --> A_2  L_2       
     e( 14 - 15) =     11.80982  eV     2   --> E    L_3       
     e( 16 - 17) =     11.90784  eV     2   --> E    L_3       
     e( 18 - 18) =     11.98401  eV     1   --> A_1  L_1       
     e( 19 - 20) =     12.17545  eV     2   --> E    L_3       
     e( 21 - 21) =     14.37863  eV     1   --> A_1  L_1       
     e( 22 - 23) =     15.52725  eV     2   --> E    L_3       

 **************************************************************************

 **************************************************************************

                    xk=(   0.47500,   0.50000,   0.52500  )

     point group C_1 (1)    
     there are  1 classes
     the character table:

       E    
A      1.00

     the symmetry operations in each class and the name of the first element:

     E        1
                                                                 

     Band symmetry, C_1 (1)     point group:

     e(  1 -  1) =    -26.52212  eV     1   --> A              
     e(  2 -  2) =    -26.52144  eV     1   --> A              
     e(  3 -  3) =    -22.48068  eV     1   --> A              
     e(  4 -  4) =    -20.46819  eV     1   --> A              
     e(  5 -  5) =    -20.46801  eV     1   --> A              
     e(  6 -  6) =    -20.00262  eV     1   --> A              
     e(  7 -  7) =     -6.64294  eV     1   --> A              
     e(  8 -  8) =     -5.87100  eV     1   --> A              
     e(  9 -  9) =     -5.86874  eV     1   --> A              
     e( 10 - 10) =      6.43818  eV     1   --> A              
     e( 11 - 11) =      8.10129  eV     1   --> A              
     e( 12 - 12) =     11.36378  eV     1   --> A              
     e( 13 - 13) =     11.74350  eV     1   --> A              
     e( 14 - 14) =     11.81950  eV     1   --> A              
     e( 15 - 15) =     11.84853  eV     1   --> A              
     e( 16 - 16) =     11.91073  eV     1   --> A              
     e( 17 - 17) =     11.92139  eV     1   --> A              
     e( 18 - 18) =     11.98478  eV     1   --> A              
     e( 19 - 19) =     12.17540  eV     1   --> A              
     e( 20 - 20) =     12.17678  eV     1   --> A              
     e( 21 - 21) =     14.39121  eV     1   --> A              
     e( 22 - 22) =     15.52410  eV     1   --> A              
     e( 23 - 23) =     15.54380  eV     1   --> A              

 **************************************************************************

 **************************************************************************

                    xk=(   0.45000,   0.50000,   0.55000  )

     Band symmetry, C_1 (1)     point group:

     e(  1 -  1) =    -28.82018  eV     1   --> A              
     e(  2 -  2) =    -26.24213  eV     1   --> A              
     e(  3 -  3) =    -22.48039  eV     1   --> A              
     e(  4 -  4) =    -21.05263  eV     1   --> A              
     e(  5 -  5) =    -20.58593  eV     1   --> A              
     e(  6 -  6) =    -20.46265  eV     1   --> A              
     e(  7 -  7) =     -6.63890  eV     1   --> A              
     e(  8 -  8) =     -5.87980  eV     1   --> A              
     e(  9 -  9) =     -5.87081  eV     1   --> A              
     e( 10 - 10) =      6.45291  eV     1   --> A              
     e( 11 - 11) =      8.07540  eV     1   --> A              
     e( 12 - 12) =     11.24845  eV     1   --> A              
     e( 13 - 13) =     11.71703  eV     1   --> A              
     e( 14 - 14) =     11.81687  eV     1   --> A              
     e( 15 - 15) =     11.89403  eV     1   --> A              
     e( 16 - 16) =     11.91158  eV     1   --> A              
     e( 17 - 17) =     11.97280  eV     1   --> A              
     e( 18 - 18) =     11.98702  eV     1   --> A              
     e( 19 - 19) =     12.13548  eV     1   --> A              
     e( 20 - 20) =     12.16068  eV     1   --> A              
     e( 21 - 21) =     14.37267  eV     1   --> A              
     e( 22 - 22) =     15.51348  eV     1   --> A              
     e( 23 - 23) =     15.59055  eV     1   --> A              

 **************************************************************************

 **************************************************************************

                    xk=(   0.42500,   0.50000,   0.57500  )

     Band symmetry, C_1 (1)     point group:

     e(  1 -  1) =    -27.24880  eV     1   --> A              
     e(  2 -  2) =    -26.12623  eV     1   --> A              
     e(  3 -  3) =    -22.47945  eV     1   --> A              
     e(  4 -  4) =    -21.16658  eV     1   --> A              
     e(  5 -  5) =    -19.86071  eV     1   --> A              
     e(  6 -  6) =    -19.52237  eV     1   --> A              
     e(  7 -  7) =     -6.63222  eV     1   --> A              
     e(  8 -  8) =     -5.89412  eV     1   --> A              
     e(  9 -  9) =     -5.87422  eV     1   --> A              
     e( 10 - 10) =      6.47788  eV     1   --> A              
     e( 11 - 11) =      8.03588  eV     1   --> A              
     e( 12 - 12) =     11.21144  eV     1   --> A              
     e( 13 - 13) =     11.70071  eV     1   --> A              
     e( 14 - 14) =     11.87534  eV     1   --> A              
     e( 15 - 15) =     11.90885  eV     1   --> A              
     e( 16 - 16) =     11.96394  eV     1   --> A              
     e( 17 - 17) =     12.00860  eV     1   --> A              
     e( 18 - 18) =     12.07061  eV     1   --> A              
     e( 19 - 19) =     12.11954  eV     1   --> A              
     e( 20 - 20) =     12.17277  eV     1   --> A              
     e( 21 - 21) =     14.44217  eV     1   --> A              
     e( 22 - 22) =     15.50222  eV     1   --> A              
     e( 23 - 23) =     15.67096  eV     1   --> A              

 **************************************************************************

 **************************************************************************

                    xk=(   0.40000,   0.50000,   0.60000  )

     Band symmetry, C_1 (1)     point group:

     e(  1 -  1) =    -26.85644  eV     1   --> A              
     e(  2 -  2) =    -25.74625  eV     1   --> A              
     e(  3 -  3) =    -22.74476  eV     1   --> A              
     e(  4 -  4) =    -22.47685  eV     1   --> A              
     e(  5 -  5) =    -21.49623  eV     1   --> A              
     e(  6 -  6) =    -20.45926  eV     1   --> A              
     e(  7 -  7) =     -6.62300  eV     1   --> A              
     e(  8 -  8) =     -5.91359  eV     1   --> A              
     e(  9 -  9) =     -5.87903  eV     1   --> A              
     e( 10 - 10) =      6.51114  eV     1   --> A              
     e( 11 - 11) =      7.98201  eV     1   --> A              
     e( 12 - 12) =     11.16191  eV     1   --> A              
     e( 13 - 13) =     11.69459  eV     1   --> A              
     e( 14 - 14) =     11.86988  eV     1   --> A              
     e( 15 - 15) =     11.91644  eV     1   --> A              
     e( 16 - 16) =     11.96028  eV     1   --> A              
     e( 17 - 17) =     11.99198  eV     1   --> A              
     e( 18 - 18) =     12.02148  eV     1   --> A              
     e( 19 - 19) =     12.11424  eV     1   --> A              
     e( 20 - 20) =     12.17353  eV     1   --> A              
     e( 21 - 21) =     14.52535  eV     1   --> A              
     e( 22 - 22) =     15.47937  eV     1   --> A              
     e( 23 - 23) =     15.77282  eV     1   --> A              

 **************************************************************************

 **************************************************************************

                    xk=(   0.37500,   0.50000,   0.62500  )

     Band symmetry, C_1 (1)     point group:

     e(  1 -  1) =    -27.01113  eV     1   --> A              
     e(  2 -  2) =    -24.59473  eV     1   --> A              
     e(  3 -  3) =    -22.47646  eV     1   --> A              
     e(  4 -  4) =    -21.76946  eV     1   --> A              
     e(  5 -  5) =    -20.66629  eV     1   --> A              
     e(  6 -  6) =    -19.97528  eV     1   --> A              
     e(  7 -  7) =     -6.61127  eV     1   --> A              
     e(  8 -  8) =     -5.93760  eV     1   --> A              
     e(  9 -  9) =     -5.88524  eV     1   --> A              
     e( 10 - 10) =      6.55194  eV     1   --> A              
     e( 11 - 11) =      7.91631  eV     1   --> A              
     e( 12 - 12) =     11.11000  eV     1   --> A              
     e( 13 - 13) =     11.70361  eV     1   --> A              
     e( 14 - 14) =     11.87528  eV     1   --> A              
     e( 15 - 15) =     11.93715  eV     1   --> A              
     e( 16 - 16) =     11.98551  eV     1   --> A              
     e( 17 - 17) =     12.03979  eV     1   --> A              
     e( 18 - 18) =     12.06737  eV     1   --> A              
     e( 19 - 19) =     12.13193  eV     1   --> A              
     e( 20 - 20) =     12.28309  eV     1   --> A              
     e( 21 - 21) =     14.62659  eV     1   --> A              
     e( 22 - 22) =     15.44958  eV     1   --> A              
     e( 23 - 23) =     15.90196  eV     1   --> A              

 **************************************************************************

 **************************************************************************

                    xk=(   0.35000,   0.50000,   0.65000  )

     Band symmetry, C_1 (1)     point group:

     e(  1 -  1) =    -25.68673  eV     1   --> A              
     e(  2 -  2) =    -24.50707  eV     1   --> A              
     e(  3 -  3) =    -22.47445  eV     1   --> A              
     e(  4 -  4) =    -21.61203  eV     1   --> A              
     e(  5 -  5) =    -19.52886  eV     1   --> A              
     e(  6 -  6) =    -19.44863  eV     1   --> A              
     e(  7 -  7) =     -6.59723  eV     1   --> A              
     e(  8 -  8) =     -5.96549  eV     1   --> A              
     e(  9 -  9) =     -5.89284  eV     1   --> A              
     e( 10 - 10) =      6.59793  eV     1   --> A              
     e( 11 - 11) =      7.84119  eV     1   --> A              
     e( 12 - 12) =     11.06566  eV     1   --> A              
     e( 13 - 13) =     11.70864  eV     1   --> A              
     e( 14 - 14) =     11.89612  eV     1   --> A              
     e( 15 - 15) =     11.94496  eV     1   --> A              
     e( 16 - 16) =     12.02073  eV     1   --> A              
     e( 17 - 17) =     12.08280  eV     1   --> A              
     e( 18 - 18) =     12.11368  eV     1   --> A              
     e( 19 - 19) =     12.14063  eV     1   --> A              
     e( 20 - 20) =     12.41293  eV     1   --> A              
     e( 21 - 21) =     14.74973  eV     1   --> A              
     e( 22 - 22) =     15.41512  eV     1   --> A              
     e( 23 - 23) =     16.05037  eV     1   --> A              

 **************************************************************************

 **************************************************************************

                    xk=(   0.32500,   0.50000,   0.67500  )

     Band symmetry, C_1 (1)     point group:

     e(  1 -  1) =    -25.92608  eV     1   --> A              
     e(  2 -  2) =    -24.72542  eV     1   --> A              
     e(  3 -  3) =    -22.47249  eV     1   --> A              
     e(  4 -  4) =    -22.07097  eV     1   --> A              
     e(  5 -  5) =    -21.75872  eV     1   --> A              
     e(  6 -  6) =    -19.70210  eV     1   --> A              
     e(  7 -  7) =     -6.58107  eV     1   --> A              
     e(  8 -  8) =     -5.99651  eV     1   --> A              
     e(  9 -  9) =     -5.90186  eV     1   --> A              
     e( 10 - 10) =      6.64702  eV     1   --> A              
     e( 11 - 11) =      7.75975  eV     1   --> A              
     e( 12 - 12) =     11.02352  eV     1   --> A              
     e( 13 - 13) =     11.69188  eV     1   --> A              
     e( 14 - 14) =     11.84812  eV     1   --> A              
     e( 15 - 15) =     11.92187  eV     1   --> A              
     e( 16 - 16) =     12.00634  eV     1   --> A              
     e( 17 - 17) =     12.05118  eV     1   --> A              
     e( 18 - 18) =     12.07658  eV     1   --> A              
     e( 19 - 19) =     12.13180  eV     1   --> A              
     e( 20 - 20) =     12.53431  eV     1   --> A              
     e( 21 - 21) =     14.88785  eV     1   --> A              
     e( 22 - 22) =     15.37211  eV     1   --> A              
     e( 23 - 23) =     16.20939  eV     1   --> A              

 **************************************************************************

 **************************************************************************

                    xk=(   0.30000,   0.50000,   0.70000  )

     Band symmetry, C_1 (1)     point group:

     e(  1 -  1) =    -27.02787  eV     1   --> A              
     e(  2 -  2) =    -24.34364  eV     1   --> A              
     e(  3 -  3) =    -22.86568  eV     1   --> A              
     e(  4 -  4) =    -22.60302  eV     1   --> A              
     e(  5 -  5) =    -22.46945  eV     1   --> A              
     e(  6 -  6) =    -20.72522  eV     1   --> A              
     e(  7 -  7) =     -6.56297  eV     1   --> A              
     e(  8 -  8) =     -6.02974  eV     1   --> A              
     e(  9 -  9) =     -5.91229  eV     1   --> A              
     e( 10 - 10) =      6.69736  eV     1   --> A              
     e( 11 - 11) =      7.67409  eV     1   --> A              
     e( 12 - 12) =     10.98136  eV     1   --> A              
     e( 13 - 13) =     11.69672  eV     1   --> A              
     e( 14 - 14) =     11.78942  eV     1   --> A              
     e( 15 - 15) =     11.93097  eV     1   --> A              
     e( 16 - 16) =     11.96793  eV     1   --> A              
     e( 17 - 17) =     11.98155  eV     1   --> A              
     e( 18 - 18) =     12.08207  eV     1   --> A              
     e( 19 - 19) =     12.10335  eV     1   --> A              
     e( 20 - 20) =     12.66851  eV     1   --> A              
     e( 21 - 21) =     15.03757  eV     1   --> A              
     e( 22 - 22) =     15.32278  eV     1   --> A              
[...]
     e( 18 - 18) =     12.05605  eV     1   --> A'             
     e( 19 - 19) =     12.30276  eV     1   --> A'             
     e( 20 - 20) =     12.83285  eV     1   --> A''            
     e( 21 - 21) =     13.40449  eV     1   --> A''            
     e( 22 - 22) =     13.86101  eV     1   --> A'             
     e( 23 - 23) =     14.64092  eV     1   --> A'             

 **************************************************************************

 **************************************************************************

                    xk=(   0.00000,   0.25000,   0.25000  )

     Band symmetry, C_s (m)     point group:

     e(  1 -  1) =    -28.42131  eV     1   --> A'             
     e(  2 -  2) =    -26.53235  eV     1   --> A''            
     e(  3 -  3) =    -26.23547  eV     1   --> A'             
     e(  4 -  4) =    -22.93317  eV     1   --> A''            
     e(  5 -  5) =    -22.90685  eV     1   --> A'             
     e(  6 -  6) =    -22.54246  eV     1   --> A'             
     e(  7 -  7) =     -6.06928  eV     1   --> A'             
     e(  8 -  8) =     -5.85747  eV     1   --> A'             
     e(  9 -  9) =     -5.78778  eV     1   --> A''            
     e( 10 - 10) =      5.12446  eV     1   --> A'             
     e( 11 - 11) =      9.09614  eV     1   --> A'             
     e( 12 - 12) =     11.25872  eV     1   --> A'             
     e( 13 - 13) =     11.65418  eV     1   --> A''            
     e( 14 - 14) =     11.73538  eV     1   --> A'             
     e( 15 - 15) =     11.78569  eV     1   --> A''            
     e( 16 - 16) =     11.82830  eV     1   --> A'             
     e( 17 - 17) =     11.97547  eV     1   --> A''            
     e( 18 - 18) =     12.07019  eV     1   --> A'             
     e( 19 - 19) =     12.34045  eV     1   --> A'             
     e( 20 - 20) =     12.74816  eV     1   --> A''            
     e( 21 - 21) =     13.48674  eV     1   --> A''            
     e( 22 - 22) =     13.67267  eV     1   --> A'             
     e( 23 - 23) =     14.51273  eV     1   --> A'             

 **************************************************************************

 **************************************************************************

                    xk=(   0.00000,   0.22500,   0.22500  )

     Band symmetry, C_s (m)     point group:

     e(  1 -  1) =    -29.79216  eV     1   --> A'             
     e(  2 -  2) =    -27.81567  eV     1   --> A''            
     e(  3 -  3) =    -27.80523  eV     1   --> A'             
     e(  4 -  4) =    -25.14974  eV     1   --> A'             
     e(  5 -  5) =    -23.00499  eV     1   --> A''            
     e(  6 -  6) =    -22.54843  eV     1   --> A'             
     e(  7 -  7) =     -6.02245  eV     1   --> A'             
     e(  8 -  8) =     -5.84006  eV     1   --> A'             
     e(  9 -  9) =     -5.78331  eV     1   --> A''            
     e( 10 - 10) =      4.99792  eV     1   --> A'             
     e( 11 - 11) =      9.21708  eV     1   --> A'             
     e( 12 - 12) =     11.30023  eV     1   --> A'             
     e( 13 - 13) =     11.65823  eV     1   --> A''            
     e( 14 - 14) =     11.68911  eV     1   --> A'             
     e( 15 - 15) =     11.73076  eV     1   --> A'             
     e( 16 - 16) =     11.75103  eV     1   --> A''            
     e( 17 - 17) =     11.98586  eV     1   --> A''            
     e( 18 - 18) =     12.01280  eV     1   --> A'             
     e( 19 - 19) =     12.35423  eV     1   --> A'             
     e( 20 - 20) =     12.64742  eV     1   --> A''            
     e( 21 - 21) =     13.48928  eV     1   --> A'             
     e( 22 - 22) =     13.55415  eV     1   --> A''            
     e( 23 - 23) =     14.40674  eV     1   --> A'             

 **************************************************************************

 **************************************************************************

                    xk=(   0.00000,   0.20000,   0.20000  )

     Band symmetry, C_s (m)     point group:

     e(  1 -  1) =    -29.78845  eV     1   --> A'             
     e(  2 -  2) =    -27.86239  eV     1   --> A''            
     e(  3 -  3) =    -27.81481  eV     1   --> A'             
     e(  4 -  4) =    -25.17563  eV     1   --> A'             
     e(  5 -  5) =    -23.02119  eV     1   --> A''            
     e(  6 -  6) =    -22.55395  eV     1   --> A'             
     e(  7 -  7) =     -5.97666  eV     1   --> A'             
     e(  8 -  8) =     -5.82447  eV     1   --> A'             
     e(  9 -  9) =     -5.77944  eV     1   --> A''            
     e( 10 - 10) =      4.87914  eV     1   --> A'             
     e( 11 - 11) =      9.34266  eV     1   --> A'             
     e( 12 - 12) =     11.35765  eV     1   --> A'             
     e( 13 - 13) =     11.66658  eV     1   --> A''            
     e( 14 - 14) =     11.68047  eV     1   --> A'             
     e( 15 - 15) =     11.73507  eV     1   --> A'             
     e( 16 - 16) =     11.74054  eV     1   --> A''            
     e( 17 - 17) =     11.99752  eV     1   --> A''            
     e( 18 - 18) =     12.02114  eV     1   --> A'             
     e( 19 - 19) =     12.36672  eV     1   --> A'             
     e( 20 - 20) =     12.55154  eV     1   --> A''            
     e( 21 - 21) =     13.33013  eV     1   --> A'             
     e( 22 - 22) =     13.64440  eV     1   --> A''            
     e( 23 - 23) =     14.31401  eV     1   --> A'             

 **************************************************************************

 **************************************************************************

                    xk=(   0.00000,   0.17500,   0.17500  )

     Band symmetry, C_s (m)     point group:

     e(  1 -  1) =    -29.77537  eV     1   --> A'             
     e(  2 -  2) =    -27.33201  eV     1   --> A''            
     e(  3 -  3) =    -27.24476  eV     1   --> A'             
     e(  4 -  4) =    -24.74167  eV     1   --> A'             
     e(  5 -  5) =    -23.03044  eV     1   --> A''            
     e(  6 -  6) =    -22.55901  eV     1   --> A'             
     e(  7 -  7) =     -5.93300  eV     1   --> A'             
     e(  8 -  8) =     -5.81074  eV     1   --> A'             
     e(  9 -  9) =     -5.77613  eV     1   --> A''            
     e( 10 - 10) =      4.76965  eV     1   --> A'             
     e( 11 - 11) =      9.46941  eV     1   --> A'             
     e( 12 - 12) =     11.43289  eV     1   --> A'             
     e( 13 - 13) =     11.66870  eV     1   --> A''            
     e( 14 - 14) =     11.67712  eV     1   --> A'             
     e( 15 - 15) =     11.74461  eV     1   --> A''            
     e( 16 - 16) =     11.75556  eV     1   --> A'             
     e( 17 - 17) =     12.03242  eV     1   --> A'             
     e( 18 - 18) =     12.04540  eV     1   --> A''            
     e( 19 - 19) =     12.36067  eV     1   --> A'             
     e( 20 - 20) =     12.46150  eV     1   --> A''            
     e( 21 - 21) =     13.19623  eV     1   --> A'             
     e( 22 - 22) =     13.73556  eV     1   --> A''            
     e( 23 - 23) =     14.24198  eV     1   --> A'             

 **************************************************************************

 **************************************************************************

                    xk=(   0.00000,   0.15000,   0.15000  )

     Band symmetry, C_s (m)     point group:

     e(  1 -  1) =    -29.70920  eV     1   --> A'             
     e(  2 -  2) =    -26.86799  eV     1   --> A''            
     e(  3 -  3) =    -26.39028  eV     1   --> A'             
     e(  4 -  4) =    -23.59307  eV     1   --> A'             
     e(  5 -  5) =    -22.56344  eV     1   --> A'             
     e(  6 -  6) =    -22.35838  eV     1   --> A''            
     e(  7 -  7) =     -5.89251  eV     1   --> A'             
     e(  8 -  8) =     -5.79885  eV     1   --> A'             
     e(  9 -  9) =     -5.77332  eV     1   --> A''            
     e( 10 - 10) =      4.67108  eV     1   --> A'             
     e( 11 - 11) =      9.59625  eV     1   --> A'             
     e( 12 - 12) =     11.49678  eV     1   --> A'             
     e( 13 - 13) =     11.67489  eV     1   --> A''            
     e( 14 - 14) =     11.69559  eV     1   --> A'             
     e( 15 - 15) =     11.77089  eV     1   --> A''            
     e( 16 - 16) =     11.78594  eV     1   --> A'             
     e( 17 - 17) =     12.05940  eV     1   --> A'             
     e( 18 - 18) =     12.10725  eV     1   --> A''            
     e( 19 - 19) =     12.33571  eV     1   --> A'             
     e( 20 - 20) =     12.38340  eV     1   --> A''            
     e( 21 - 21) =     13.08939  eV     1   --> A'             
     e( 22 - 22) =     13.82493  eV     1   --> A''            
     e( 23 - 23) =     14.19093  eV     1   --> A'             

 **************************************************************************

 **************************************************************************

                    xk=(   0.00000,   0.12500,   0.12500  )

     Band symmetry, C_s (m)     point group:

     e(  1 -  1) =    -29.67647  eV     1   --> A'             
     e(  2 -  2) =    -26.87281  eV     1   --> A''            
     e(  3 -  3) =    -26.40425  eV     1   --> A'             
     e(  4 -  4) =    -23.59436  eV     1   --> A'             
     e(  5 -  5) =    -22.56743  eV     1   --> A'             
     e(  6 -  6) =    -22.35790  eV     1   --> A''            
     e(  7 -  7) =     -5.85622  eV     1   --> A'             
     e(  8 -  8) =     -5.78883  eV     1   --> A'             
     e(  9 -  9) =     -5.77105  eV     1   --> A''            
     e( 10 - 10) =      4.58476  eV     1   --> A'             
     e( 11 - 11) =      9.71397  eV     1   --> A'             
     e( 12 - 12) =     11.53679  eV     1   --> A'             
     e( 13 - 13) =     11.67195  eV     1   --> A''            
     e( 14 - 14) =     11.68953  eV     1   --> A'             
     e( 15 - 15) =     11.79789  eV     1   --> A''            
     e( 16 - 16) =     11.80778  eV     1   --> A'             
     e( 17 - 17) =     12.06647  eV     1   --> A'             
     e( 18 - 18) =     12.11404  eV     1   --> A''            
     e( 19 - 19) =     12.29236  eV     1   --> A'             
     e( 20 - 20) =     12.30535  eV     1   --> A''            
     e( 21 - 21) =     12.98695  eV     1   --> A'             
     e( 22 - 22) =     13.90873  eV     1   --> A''            
     e( 23 - 23) =     14.15851  eV     1   --> A'             

 **************************************************************************

 **************************************************************************

                    xk=(   0.00000,   0.10000,   0.10000  )

     Band symmetry, C_s (m)     point group:

     e(  1 -  1) =    -26.51197  eV     1   --> A'             
     e(  2 -  2) =    -26.10334  eV     1   --> A'             
     e(  3 -  3) =    -24.11296  eV     1   --> A''            
     e(  4 -  4) =    -22.57102  eV     1   --> A'             
     e(  5 -  5) =    -22.15527  eV     1   --> A'             
     e(  6 -  6) =    -20.23345  eV     1   --> A''            
     e(  7 -  7) =     -5.82503  eV     1   --> A'             
     e(  8 -  8) =     -5.78062  eV     1   --> A'             
     e(  9 -  9) =     -5.76919  eV     1   --> A''            
     e( 10 - 10) =      4.51232  eV     1   --> A'             
     e( 11 - 11) =      9.83997  eV     1   --> A'             
     e( 12 - 12) =     11.65693  eV     1   --> A'             
     e( 13 - 13) =     11.70518  eV     1   --> A''            
     e( 14 - 14) =     11.75907  eV     1   --> A'             
     e( 15 - 15) =     11.88418  eV     1   --> A'             
     e( 16 - 16) =     11.90648  eV     1   --> A''            
     e( 17 - 17) =     12.09112  eV     1   --> A'             
     e( 18 - 18) =     12.12805  eV     1   --> A''            
     e( 19 - 19) =     12.25626  eV     1   --> A'             
     e( 20 - 20) =     12.29908  eV     1   --> A''            
     e( 21 - 21) =     12.95085  eV     1   --> A'             
     e( 22 - 22) =     13.98647  eV     1   --> A''            
     e( 23 - 23) =     14.14197  eV     1   --> A'             

 **************************************************************************

 **************************************************************************

                    xk=(   0.00000,   0.07500,   0.07500  )

     Band symmetry, C_s (m)     point group:

     e(  1 -  1) =    -22.81863  eV     1   --> A''            
     e(  2 -  2) =    -22.77011  eV     1   --> A'             
     e(  3 -  3) =    -22.57303  eV     1   --> A'             
     e(  4 -  4) =    -21.52164  eV     1   --> A'             
     e(  5 -  5) =    -20.56468  eV     1   --> A'             
     e(  6 -  6) =    -19.86081  eV     1   --> A''            
     e(  7 -  7) =     -5.79977  eV     1   --> A'             
     e(  8 -  8) =     -5.77423  eV     1   --> A'             
     e(  9 -  9) =     -5.76781  eV     1   --> A''            
     e( 10 - 10) =      4.45480  eV     1   --> A'             
     e( 11 - 11) =      9.97049  eV     1   --> A'             
     e( 12 - 12) =     11.77105  eV     1   --> A''            
     e( 13 - 13) =     11.77626  eV     1   --> A'             
     e( 14 - 14) =     11.82462  eV     1   --> A'             
     e( 15 - 15) =     11.96805  eV     1   --> A''            
     e( 16 - 16) =     11.98556  eV     1   --> A'             
     e( 17 - 17) =     12.09511  eV     1   --> A'             
     e( 18 - 18) =     12.15790  eV     1   --> A''            
     e( 19 - 19) =     12.26257  eV     1   --> A''            
     e( 20 - 20) =     12.26444  eV     1   --> A'             
     e( 21 - 21) =     12.96755  eV     1   --> A'             
     e( 22 - 22) =     14.05010  eV     1   --> A''            
     e( 23 - 23) =     14.13993  eV     1   --> A'             

 **************************************************************************

 **************************************************************************

                    xk=(   0.00000,   0.05000,   0.05000  )

     Band symmetry, C_s (m)     point group:

     e(  1 -  1) =    -22.57548  eV     1   --> A'             
     e(  2 -  2) =    -22.29974  eV     1   --> A'             
     e(  3 -  3) =    -21.83664  eV     1   --> A''            
     e(  4 -  4) =    -20.42569  eV     1   --> A'             
     e(  5 -  5) =    -20.13296  eV     1   --> A'             
     e(  6 -  6) =    -19.51300  eV     1   --> A''            
     e(  7 -  7) =     -5.78124  eV     1   --> A'             
     e(  8 -  8) =     -5.76969  eV     1   --> A'             
     e(  9 -  9) =     -5.76684  eV     1   --> A''            
     e( 10 - 10) =      4.41283  eV     1   --> A'             
     e( 11 - 11) =     10.05363  eV     1   --> A'             
     e( 12 - 12) =     11.79834  eV     1   --> A''            
     e( 13 - 13) =     11.81008  eV     1   --> A'             
     e( 14 - 14) =     11.82641  eV     1   --> A'             
     e( 15 - 15) =     12.01907  eV     1   --> A'             
     e( 16 - 16) =     12.02208  eV     1   --> A''            
     e( 17 - 17) =     12.08298  eV     1   --> A'             
     e( 18 - 18) =     12.17817  eV     1   --> A''            
     e( 19 - 19) =     12.20592  eV     1   --> A'             
     e( 20 - 20) =     12.24559  eV     1   --> A''            
     e( 21 - 21) =     12.94258  eV     1   --> A'             
     e( 22 - 22) =     14.09866  eV     1   --> A''            
     e( 23 - 23) =     14.13778  eV     1   --> A'             

 **************************************************************************

 **************************************************************************

                    xk=(   0.00000,   0.02500,   0.02500  )

     Band symmetry, C_s (m)     point group:

     e(  1 -  1) =    -22.57651  eV     1   --> A'             
     e(  2 -  2) =    -21.25443  eV     1   --> A'             
     e(  3 -  3) =    -21.25418  eV     1   --> A''            
     e(  4 -  5) =    -19.46761  eV     2   --> A'             
     e(  4 -  5) =    -19.46761  eV     2   --> A''            
     e(  6 -  6) =    -19.46735  eV     1   --> A'             
     e(  7 -  7) =     -5.76989  eV     1   --> A'             
     e(  8 -  8) =     -5.76698  eV     1   --> A'             
     e(  9 -  9) =     -5.76627  eV     1   --> A''            
     e( 10 - 10) =      4.38738  eV     1   --> A'             
     e( 11 - 11) =     10.10921  eV     1   --> A'             
     e( 12 - 12) =     11.82897  eV     1   --> A'             
     e( 13 - 13) =     11.82948  eV     1   --> A'             
     e( 14 - 14) =     11.82958  eV     1   --> A''            
     e( 15 - 15) =     12.05672  eV     1   --> A''            
     e( 16 - 16) =     12.05825  eV     1   --> A'             
     e( 17 - 17) =     12.07454  eV     1   --> A'             
     e( 18 - 18) =     12.18791  eV     1   --> A''            
     e( 19 - 19) =     12.20842  eV     1   --> A'             
     e( 20 - 20) =     12.20882  eV     1   --> A''            
     e( 21 - 21) =     12.93631  eV     1   --> A'             
     e( 22 - 22) =     14.12917  eV     1   --> A''            
     e( 23 - 23) =     14.13929  eV     1   --> A'             

 **************************************************************************

 **************************************************************************

                    xk=(   0.00000,   0.00000,   0.00000  )

     point group T_d (-43m) 
     there are  5 classes
     the character table:

       E     8C3   3C2   6S4   6s_d 
A_1    1.00  1.00  1.00  1.00  1.00
A_2    1.00  1.00  1.00 -1.00 -1.00
E      2.00 -1.00  2.00  0.00  0.00
T_1    3.00  0.00 -1.00  1.00 -1.00
T_2    3.00  0.00 -1.00 -1.00  1.00

     the symmetry operations in each class and the name of the first element:

     E        1
                                                                 
     8C3      5    7    8    6   12    9   10   11
                                                                 
     3C2      2    3    4
                                                                 
     6S4     15   16   20   19   23   24
                                                                 
     6s_d    13   14   17   18   21   22
                                                                 

     Band symmetry, T_d (-43m)  point group:

     e(  1 -  1) =    -22.57690  eV     1   --> A_1  G_1  P_1  
     e(  2 -  3) =    -21.25818  eV     2   --> E    G_12 P_3  
     e(  4 -  6) =    -19.47116  eV     3   --> T_2  G_15 P_4  
     e(  7 -  9) =     -5.76608  eV     3   --> T_2  G_15 P_4  
     e( 10 - 10) =      4.37882  eV     1   --> A_1  G_1  P_1  
     e( 11 - 11) =     10.12583  eV     1   --> A_1  G_1  P_1  
     e( 12 - 14) =     11.82821  eV     3   --> T_2  G_15 P_4  
     e( 15 - 17) =     12.07143  eV     3   --> T_2  G_15 P_4  
     e( 18 - 20) =     12.18774  eV     3   --> T_1  G_25 P_5  
     e( 21 - 21) =     12.92694  eV     1   --> A_1  G_1  P_1  
     e( 22 - 23) =     14.13940  eV     2   --> E    G_12 P_3  

 **************************************************************************

     BANDS        :     10.40s CPU     10.92s WALL


   This run was terminated on:   4:12: 7  13Dec2019            

=------------------------------------------------------------------------------=
   JOB DONE.
=------------------------------------------------------------------------------=
