
     Program PWSCF v.6.4.1 starts on  4Dec2019 at  0: 0:26 

     This program is part of the open-source Quantum ESPRESSO suite
     for quantum simulation of materials; please cite
         "P. Giannozzi et al., J. Phys.:Condens. Matter 21 395502 (2009);
         "P. Giannozzi et al., J. Phys.:Condens. Matter 29 465901 (2017);
          URL http://www.quantum-espresso.org", 
     in publications or presentations arising from this work. More details at
     http://www.quantum-espresso.org/quote

     Parallel version (MPI), running on     2 processors

     MPI processes distributed on     1 nodes
     R & G space division:  proc/nbgrp/npool/nimage =       2
     Reading input from si.1_scf.in

     Current dimensions of program PWSCF are:
     Max number of different atomic species (ntypx) = 10
     Max number of k-points (npk) =  40000
     Max angular momentum in pseudopotentials (lmaxx) =  3

     Subspace diagonalization in iterative solution of the eigenvalue problem:
     a serial algorithm will be used


     Parallelization info
     --------------------
     sticks:   dense  smooth     PW     G-vecs:    dense   smooth      PW
     Min         297     297     93                 4788     4788     843
     Max         298     298     94                 4789     4789     844
     Sum         595     595    187                 9577     9577    1687



     bravais-lattice index     =            2
     lattice parameter (alat)  =      10.4109  a.u.
     unit-cell volume          =     282.1019 (a.u.)^3
     number of atoms/cell      =            2
     number of atomic types    =            1
     number of electrons       =         8.00
     number of Kohn-Sham states=            4
     kinetic-energy cutoff     =      40.0000  Ry
     charge density cutoff     =     160.0000  Ry
     convergence threshold     =      1.0E-08
     mixing beta               =       0.7000
     number of iterations used =            8  plain     mixing
     Exchange-correlation      = SLA PW PBE PBE ( 1  4  3  4 0 0)

     celldm(1)=  10.410909  celldm(2)=   0.000000  celldm(3)=   0.000000
     celldm(4)=   0.000000  celldm(5)=   0.000000  celldm(6)=   0.000000

     crystal axes: (cart. coord. in units of alat)
               a(1) = (  -0.500000   0.000000   0.500000 )  
               a(2) = (   0.000000   0.500000   0.500000 )  
               a(3) = (  -0.500000   0.500000   0.000000 )  

     reciprocal axes: (cart. coord. in units 2 pi/alat)
               b(1) = ( -1.000000 -1.000000  1.000000 )  
               b(2) = (  1.000000  1.000000  1.000000 )  
               b(3) = ( -1.000000  1.000000 -1.000000 )  


     PseudoPot. # 1 for Si read from file:
     /home/adikshith/qe-6.4.1/pseudo/Si.pbe-rrkj.UPF
     MD5 check sum: 8af8e7039d270e0118f3b3651cf51d3d
     Pseudo is Norm-conserving, Zval =  4.0
     Generated by new atomic code, or converted to UPF format
     Using radial grid of  883 points,  3 beta functions with: 
                l(1) =   0
                l(2) =   0
                l(3) =   1

     atomic species   valence    mass     pseudopotential
        Si             4.00    28.08550     Si( 1.00)

     48 Sym. Ops., with inversion, found (24 have fractional translation)



   Cartesian axes

     site n.     atom                  positions (alat units)
         1           Si  tau(   1) = (   0.0000000   0.0000000   0.0000000  )
         2           Si  tau(   2) = (   0.2500000   0.2500000   0.2500000  )

     number of k points=    29
                       cart. coord. in units 2pi/alat
        k(    1) = (   0.0000000   0.0000000   0.0000000), wk =   0.0039062
        k(    2) = (  -0.1250000   0.1250000  -0.1250000), wk =   0.0312500
        k(    3) = (  -0.2500000   0.2500000  -0.2500000), wk =   0.0312500
        k(    4) = (  -0.3750000   0.3750000  -0.3750000), wk =   0.0312500
        k(    5) = (   0.5000000  -0.5000000   0.5000000), wk =   0.0156250
        k(    6) = (   0.0000000   0.2500000   0.0000000), wk =   0.0234375
        k(    7) = (  -0.1250000   0.3750000  -0.1250000), wk =   0.0937500
        k(    8) = (  -0.2500000   0.5000000  -0.2500000), wk =   0.0937500
        k(    9) = (   0.6250000  -0.3750000   0.6250000), wk =   0.0937500
        k(   10) = (   0.5000000  -0.2500000   0.5000000), wk =   0.0937500
        k(   11) = (   0.3750000  -0.1250000   0.3750000), wk =   0.0937500
        k(   12) = (   0.2500000   0.0000000   0.2500000), wk =   0.0468750
        k(   13) = (   0.0000000   0.5000000   0.0000000), wk =   0.0234375
        k(   14) = (  -0.1250000   0.6250000  -0.1250000), wk =   0.0937500
        k(   15) = (   0.7500000  -0.2500000   0.7500000), wk =   0.0937500
        k(   16) = (   0.6250000  -0.1250000   0.6250000), wk =   0.0937500
        k(   17) = (   0.5000000   0.0000000   0.5000000), wk =   0.0468750
        k(   18) = (   0.0000000   0.7500000   0.0000000), wk =   0.0234375
        k(   19) = (   0.8750000  -0.1250000   0.8750000), wk =   0.0937500
        k(   20) = (   0.7500000   0.0000000   0.7500000), wk =   0.0468750
        k(   21) = (   0.0000000  -1.0000000   0.0000000), wk =   0.0117188
        k(   22) = (  -0.2500000   0.5000000   0.0000000), wk =   0.0937500
        k(   23) = (   0.6250000  -0.3750000   0.8750000), wk =   0.1875000
        k(   24) = (   0.5000000  -0.2500000   0.7500000), wk =   0.0937500
        k(   25) = (   0.7500000  -0.2500000   1.0000000), wk =   0.0937500
        k(   26) = (   0.6250000  -0.1250000   0.8750000), wk =   0.1875000
        k(   27) = (   0.5000000   0.0000000   0.7500000), wk =   0.0937500
        k(   28) = (  -0.2500000  -1.0000000   0.0000000), wk =   0.0468750
        k(   29) = (  -0.5000000  -1.0000000   0.0000000), wk =   0.0234375

     Dense  grid:     9577 G-vectors     FFT dimensions: (  32,  32,  32)

     Estimated max dynamical RAM per process >       4.90 MB

     Estimated total dynamical RAM >       9.81 MB

     Initial potential from superposition of free atoms

     starting charge    7.99889, renormalised to    8.00000
     Starting wfcs are    8 randomized atomic wfcs

     total cpu time spent up to now is        0.4 secs

     Self-consistent Calculation

     iteration #  1     ecut=    40.00 Ry     beta= 0.70
     Davidson diagonalization with overlap
     ethr =  1.00E-02,  avg # of iterations =  2.0

     Threshold (ethr) on eigenvalues was too large:
     Diagonalizing with lowered threshold

     Davidson diagonalization with overlap
     ethr =  6.58E-04,  avg # of iterations =  1.7

     total cpu time spent up to now is        0.9 secs

     total energy              =     -15.73919454 Ry
     Harris-Foulkes estimate   =     -15.75111256 Ry
     estimated scf accuracy    <       0.05382086 Ry

     iteration #  2     ecut=    40.00 Ry     beta= 0.70
     Davidson diagonalization with overlap
     ethr =  6.73E-04,  avg # of iterations =  1.0

     total cpu time spent up to now is        1.2 secs

     total energy              =     -15.74096546 Ry
     Harris-Foulkes estimate   =     -15.74100349 Ry
     estimated scf accuracy    <       0.00274980 Ry

     iteration #  3     ecut=    40.00 Ry     beta= 0.70
     Davidson diagonalization with overlap
     ethr =  3.44E-05,  avg # of iterations =  2.1

     total cpu time spent up to now is        1.5 secs

     total energy              =     -15.74132070 Ry
     Harris-Foulkes estimate   =     -15.74133873 Ry
     estimated scf accuracy    <       0.00005811 Ry

     iteration #  4     ecut=    40.00 Ry     beta= 0.70
     Davidson diagonalization with overlap
     ethr =  7.26E-07,  avg # of iterations =  2.9

     total cpu time spent up to now is        1.9 secs

     total energy              =     -15.74135759 Ry
     Harris-Foulkes estimate   =     -15.74135771 Ry
     estimated scf accuracy    <       0.00000120 Ry

     iteration #  5     ecut=    40.00 Ry     beta= 0.70
     Davidson diagonalization with overlap
     ethr =  1.49E-08,  avg # of iterations =  2.8

     total cpu time spent up to now is        2.2 secs

     total energy              =     -15.74135814 Ry
     Harris-Foulkes estimate   =     -15.74135817 Ry
     estimated scf accuracy    <       0.00000007 Ry

     iteration #  6     ecut=    40.00 Ry     beta= 0.70
     Davidson diagonalization with overlap
     ethr =  9.32E-10,  avg # of iterations =  2.5

     total cpu time spent up to now is        2.6 secs

     End of self-consistent calculation

          k = 0.0000 0.0000 0.0000 (  1243 PWs)   bands (ev):

    -5.8260   5.7878   5.7878   5.7878

          k =-0.1250 0.1250-0.1250 (  1218 PWs)   bands (ev):

    -5.6294   4.2204   5.5123   5.5123

          k =-0.2500 0.2500-0.2500 (  1215 PWs)   bands (ev):

    -5.0566   1.9675   5.0581   5.0581

          k =-0.3750 0.3750-0.3750 (  1203 PWs)   bands (ev):

    -4.2008   0.0227   4.7397   4.7397

          k = 0.5000-0.5000 0.5000 (  1194 PWs)   bands (ev):

    -3.5975  -0.9523   4.6303   4.6303

          k = 0.0000 0.2500 0.0000 (  1219 PWs)   bands (ev):

    -5.5631   4.4399   5.0226   5.0226

          k =-0.1250 0.3750-0.1250 (  1217 PWs)   bands (ev):

    -5.1121   2.6273   4.5300   4.5880

          k =-0.2500 0.5000-0.2500 (  1205 PWs)   bands (ev):

    -4.3300   0.6481   4.0159   4.2683

          k = 0.6250-0.3750 0.6250 (  1204 PWs)   bands (ev):

    -3.5113  -0.7499   3.5883   4.2875

          k = 0.5000-0.2500 0.5000 (  1199 PWs)   bands (ev):

    -3.7424  -0.3974   3.4189   4.5691

          k = 0.3750-0.1250 0.3750 (  1209 PWs)   bands (ev):

    -4.6237   1.2805   3.5744   5.0394

          k = 0.2500 0.0000 0.2500 (  1217 PWs)   bands (ev):

    -5.3058   3.1479   4.2424   5.5011

          k = 0.0000 0.5000 0.0000 (  1198 PWs)   bands (ev):

    -4.7842   2.3060   3.9823   3.9823

          k =-0.1250 0.6250-0.1250 (  1216 PWs)   bands (ev):

    -4.1017   0.9385   3.2358   3.6745

          k = 0.7500-0.2500 0.7500 (  1209 PWs)   bands (ev):

    -3.2171  -0.4366   2.4071   3.6751

          k = 0.6250-0.1250 0.6250 (  1198 PWs)   bands (ev):

    -3.0256  -0.6793   1.9710   3.9788

          k = 0.5000 0.0000 0.5000 (  1203 PWs)   bands (ev):

    -3.8627   0.4285   2.2099   4.5120

          k = 0.0000 0.7500 0.0000 (  1206 PWs)   bands (ev):

    -3.5213   0.1540   3.2911   3.2911

          k = 0.8750-0.1250 0.8750 (  1205 PWs)   bands (ev):

    -2.6605  -0.8914   2.5115   3.2168

          k = 0.7500 0.0000 0.7500 (  1202 PWs)   bands (ev):

    -2.2499  -1.2665   1.6935   3.4634

          k = 0.0000-1.0000 0.0000 (  1186 PWs)   bands (ev):

    -1.8387  -1.8387   3.0538   3.0538

          k =-0.2500 0.5000 0.0000 (  1216 PWs)   bands (ev):

    -4.5469   1.5767   3.2026   4.4185

          k = 0.6250-0.3750 0.8750 (  1205 PWs)   bands (ev):

    -3.6961   0.0908   2.6073   3.9448

          k = 0.5000-0.2500 0.7500 (  1198 PWs)   bands (ev):

    -3.0779  -0.8053   2.4758   3.7279

          k = 0.7500-0.2500 1.0000 (  1210 PWs)   bands (ev):

    -3.3327  -0.0572   2.5800   3.1581

          k = 0.6250-0.1250 0.8750 (  1203 PWs)   bands (ev):

    -2.4991  -0.9852   1.9185   2.9675

          k = 0.5000 0.0000 0.7500 (  1203 PWs)   bands (ev):

    -2.8355  -0.6340   1.7606   3.3248

          k =-0.2500-1.0000 0.0000 (  1196 PWs)   bands (ev):

    -1.7680  -1.7680   2.5302   2.5302

          k =-0.5000-1.0000 0.0000 (  1216 PWs)   bands (ev):

    -1.6908  -1.6908   2.1227   2.1227

     highest occupied level (ev):     5.7878

!    total energy              =     -15.74135816 Ry
     Harris-Foulkes estimate   =     -15.74135816 Ry
     estimated scf accuracy    <          9.5E-09 Ry

     The total energy is the sum of the following terms:

     one-electron contribution =       4.45101181 Ry
     hartree contribution      =       1.13268975 Ry
     xc contribution           =      -4.76766459 Ry
     ewald contribution        =     -16.55739513 Ry

     convergence has been achieved in   6 iterations

     Writing output data file si.save/

     init_run     :      0.27s CPU      0.28s WALL (       1 calls)
     electrons    :      2.17s CPU      2.24s WALL (       1 calls)

     Called by init_run:
     wfcinit      :      0.19s CPU      0.19s WALL (       1 calls)
     potinit      :      0.02s CPU      0.02s WALL (       1 calls)
     hinit0       :      0.05s CPU      0.05s WALL (       1 calls)

     Called by electrons:
     c_bands      :      1.67s CPU      1.72s WALL (       7 calls)
     sum_band     :      0.39s CPU      0.41s WALL (       7 calls)
     v_of_rho     :      0.11s CPU      0.11s WALL (       7 calls)
     mix_rho      :      0.01s CPU      0.01s WALL (       7 calls)

     Called by c_bands:
     init_us_2    :      0.06s CPU      0.07s WALL (     435 calls)
     cegterg      :      1.62s CPU      1.66s WALL (     203 calls)

     Called by sum_band:

     Called by *egterg:
     h_psi        :      1.62s CPU      1.66s WALL (     668 calls)
     g_psi        :      0.01s CPU      0.01s WALL (     436 calls)
     cdiaghg      :      0.03s CPU      0.03s WALL (     610 calls)

     Called by h_psi:
     h_psi:pot    :      1.61s CPU      1.66s WALL (     668 calls)
     h_psi:calbec :      0.05s CPU      0.05s WALL (     668 calls)
     vloc_psi     :      1.53s CPU      1.57s WALL (     668 calls)
     add_vuspsi   :      0.03s CPU      0.03s WALL (     668 calls)

     General routines
     calbec       :      0.05s CPU      0.05s WALL (     668 calls)
     fft          :      0.04s CPU      0.04s WALL (      70 calls)
     ffts         :      0.00s CPU      0.00s WALL (       7 calls)
     fftw         :      1.69s CPU      1.74s WALL (    5722 calls)

     Parallel routines
     fft_scatt_xy :      0.20s CPU      0.20s WALL (    5799 calls)
     fft_scatt_yz :      0.39s CPU      0.40s WALL (    5799 calls)

     PWSCF        :      2.55s CPU      2.65s WALL


   This run was terminated on:   0: 0:28   4Dec2019            

=------------------------------------------------------------------------------=
   JOB DONE.
=------------------------------------------------------------------------------=
