
     Program PWSCF v.6.4.1 starts on  4Dec2019 at  0: 8:14 

     This program is part of the open-source Quantum ESPRESSO suite
     for quantum simulation of materials; please cite
         "P. Giannozzi et al., J. Phys.:Condens. Matter 21 395502 (2009);
         "P. Giannozzi et al., J. Phys.:Condens. Matter 29 465901 (2017);
          URL http://www.quantum-espresso.org", 
     in publications or presentations arising from this work. More details at
     http://www.quantum-espresso.org/quote

     Parallel version (MPI), running on     2 processors

     MPI processes distributed on     1 nodes
     R & G space division:  proc/nbgrp/npool/nimage =       2
     Reading input from si.2_nscf.in

     Current dimensions of program PWSCF are:
     Max number of different atomic species (ntypx) = 10
     Max number of k-points (npk) =  40000
     Max angular momentum in pseudopotentials (lmaxx) =  3

     Atomic positions and unit cell read from directory:
     ./outdir/si.save/


     Subspace diagonalization in iterative solution of the eigenvalue problem:
     a serial algorithm will be used


     Parallelization info
     --------------------
     sticks:   dense  smooth     PW     G-vecs:    dense   smooth      PW
     Min         297     297     99                 4788     4788     879
     Max         298     298    100                 4789     4789     880
     Sum         595     595    199                 9577     9577    1759



     bravais-lattice index     =            2
     lattice parameter (alat)  =      10.4109  a.u.
     unit-cell volume          =     282.1019 (a.u.)^3
     number of atoms/cell      =            2
     number of atomic types    =            1
     number of electrons       =         8.00
     number of Kohn-Sham states=            8
     kinetic-energy cutoff     =      40.0000  Ry
     charge density cutoff     =     160.0000  Ry
     Exchange-correlation      = SLA PW PBE PBE ( 1  4  3  4 0 0)

     celldm(1)=  10.410909  celldm(2)=   0.000000  celldm(3)=   0.000000
     celldm(4)=   0.000000  celldm(5)=   0.000000  celldm(6)=   0.000000

     crystal axes: (cart. coord. in units of alat)
               a(1) = (  -0.500000   0.000000   0.500000 )  
               a(2) = (   0.000000   0.500000   0.500000 )  
               a(3) = (  -0.500000   0.500000   0.000000 )  

     reciprocal axes: (cart. coord. in units 2 pi/alat)
               b(1) = ( -1.000000 -1.000000  1.000000 )  
               b(2) = (  1.000000  1.000000  1.000000 )  
               b(3) = ( -1.000000  1.000000 -1.000000 )  


     PseudoPot. # 1 for Si read from file:
     /home/adikshith/qe-6.4.1/pseudo/Si.pbe-rrkj.UPF
     MD5 check sum: 8af8e7039d270e0118f3b3651cf51d3d
     Pseudo is Norm-conserving, Zval =  4.0
     Generated by new atomic code, or converted to UPF format
     Using radial grid of  883 points,  3 beta functions with: 
                l(1) =   0
                l(2) =   0
                l(3) =   1

     atomic species   valence    mass     pseudopotential
        Si             4.00    28.08550     Si( 1.00)

     48 Sym. Ops., with inversion, found (24 have fractional translation)



   Cartesian axes

     site n.     atom                  positions (alat units)
         1           Si  tau(   1) = (   0.0000000   0.0000000   0.0000000  )
         2           Si  tau(   2) = (   0.2500000   0.2500000   0.2500000  )

     number of k points=    72 (tetrahedron method)
                       cart. coord. in units 2pi/alat
        k(    1) = (   0.0000000   0.0000000   0.0000000), wk =   0.0011574
        k(    2) = (  -0.0833333   0.0833333  -0.0833333), wk =   0.0092593
        k(    3) = (  -0.1666667   0.1666667  -0.1666667), wk =   0.0092593
        k(    4) = (  -0.2500000   0.2500000  -0.2500000), wk =   0.0092593
        k(    5) = (  -0.3333333   0.3333333  -0.3333333), wk =   0.0092593
        k(    6) = (  -0.4166667   0.4166667  -0.4166667), wk =   0.0092593
        k(    7) = (   0.5000000  -0.5000000   0.5000000), wk =   0.0046296
        k(    8) = (   0.0000000   0.1666667   0.0000000), wk =   0.0069444
        k(    9) = (  -0.0833333   0.2500000  -0.0833333), wk =   0.0277778
        k(   10) = (  -0.1666667   0.3333333  -0.1666667), wk =   0.0277778
        k(   11) = (  -0.2500000   0.4166667  -0.2500000), wk =   0.0277778
        k(   12) = (  -0.3333333   0.5000000  -0.3333333), wk =   0.0277778
        k(   13) = (   0.5833333  -0.4166667   0.5833333), wk =   0.0277778
        k(   14) = (   0.5000000  -0.3333333   0.5000000), wk =   0.0277778
        k(   15) = (   0.4166667  -0.2500000   0.4166667), wk =   0.0277778
        k(   16) = (   0.3333333  -0.1666667   0.3333333), wk =   0.0277778
        k(   17) = (   0.2500000  -0.0833333   0.2500000), wk =   0.0277778
        k(   18) = (   0.1666667  -0.0000000   0.1666667), wk =   0.0138889
        k(   19) = (   0.0000000   0.3333333   0.0000000), wk =   0.0069444
        k(   20) = (  -0.0833333   0.4166667  -0.0833333), wk =   0.0277778
        k(   21) = (  -0.1666667   0.5000000  -0.1666667), wk =   0.0277778
        k(   22) = (  -0.2500000   0.5833333  -0.2500000), wk =   0.0277778
        k(   23) = (   0.6666667  -0.3333333   0.6666667), wk =   0.0277778
        k(   24) = (   0.5833333  -0.2500000   0.5833333), wk =   0.0277778
        k(   25) = (   0.5000000  -0.1666667   0.5000000), wk =   0.0277778
        k(   26) = (   0.4166667  -0.0833333   0.4166667), wk =   0.0277778
        k(   27) = (   0.3333333   0.0000000   0.3333333), wk =   0.0138889
        k(   28) = (   0.0000000   0.5000000   0.0000000), wk =   0.0069444
        k(   29) = (  -0.0833333   0.5833333  -0.0833333), wk =   0.0277778
        k(   30) = (  -0.1666667   0.6666667  -0.1666667), wk =   0.0277778
        k(   31) = (   0.7500000  -0.2500000   0.7500000), wk =   0.0277778
        k(   32) = (   0.6666667  -0.1666667   0.6666667), wk =   0.0277778
        k(   33) = (   0.5833333  -0.0833333   0.5833333), wk =   0.0277778
        k(   34) = (   0.5000000   0.0000000   0.5000000), wk =   0.0138889
        k(   35) = (   0.0000000   0.6666667   0.0000000), wk =   0.0069444
        k(   36) = (  -0.0833333   0.7500000  -0.0833333), wk =   0.0277778
        k(   37) = (   0.8333333  -0.1666667   0.8333333), wk =   0.0277778
        k(   38) = (   0.7500000  -0.0833333   0.7500000), wk =   0.0277778
        k(   39) = (   0.6666667   0.0000000   0.6666667), wk =   0.0138889
        k(   40) = (   0.0000000   0.8333333   0.0000000), wk =   0.0069444
        k(   41) = (   0.9166667  -0.0833333   0.9166667), wk =   0.0277778
        k(   42) = (   0.8333333   0.0000000   0.8333333), wk =   0.0138889
        k(   43) = (   0.0000000  -1.0000000   0.0000000), wk =   0.0034722
        k(   44) = (  -0.1666667   0.3333333   0.0000000), wk =   0.0277778
        k(   45) = (  -0.2500000   0.4166667  -0.0833333), wk =   0.0555556
        k(   46) = (  -0.3333333   0.5000000  -0.1666667), wk =   0.0555556
        k(   47) = (   0.5833333  -0.4166667   0.7500000), wk =   0.0555556
        k(   48) = (   0.5000000  -0.3333333   0.6666667), wk =   0.0277778
        k(   49) = (  -0.1666667   0.5000000   0.0000000), wk =   0.0277778
        k(   50) = (  -0.2500000   0.5833333  -0.0833333), wk =   0.0555556
        k(   51) = (   0.6666667  -0.3333333   0.8333333), wk =   0.0555556
        k(   52) = (   0.5833333  -0.2500000   0.7500000), wk =   0.0555556
        k(   53) = (   0.5000000  -0.1666667   0.6666667), wk =   0.0555556
        k(   54) = (   0.4166667  -0.0833333   0.5833333), wk =   0.0555556
        k(   55) = (   0.3333333   0.0000000   0.5000000), wk =   0.0277778
        k(   56) = (  -0.1666667   0.6666667  -0.0000000), wk =   0.0277778
        k(   57) = (   0.7500000  -0.2500000   0.9166667), wk =   0.0555556
        k(   58) = (   0.6666667  -0.1666667   0.8333333), wk =   0.0555556
        k(   59) = (   0.5833333  -0.0833333   0.7500000), wk =   0.0555556
        k(   60) = (   0.5000000   0.0000000   0.6666667), wk =   0.0277778
        k(   61) = (   0.8333333  -0.1666667   1.0000000), wk =   0.0277778
        k(   62) = (   0.7500000  -0.0833333   0.9166667), wk =   0.0555556
        k(   63) = (   0.6666667   0.0000000   0.8333333), wk =   0.0277778
        k(   64) = (  -0.1666667  -1.0000000   0.0000000), wk =   0.0138889
        k(   65) = (   0.6666667  -0.3333333   1.0000000), wk =   0.0277778
        k(   66) = (   0.5833333  -0.2500000   0.9166667), wk =   0.0555556
        k(   67) = (   0.5000000  -0.1666667   0.8333333), wk =   0.0277778
        k(   68) = (   0.6666667  -0.1666667   1.0000000), wk =   0.0277778
        k(   69) = (   0.5833333  -0.0833333   0.9166667), wk =   0.0555556
        k(   70) = (   0.5000000   0.0000000   0.8333333), wk =   0.0277778
        k(   71) = (  -0.3333333  -1.0000000   0.0000000), wk =   0.0138889
        k(   72) = (  -0.5000000  -1.0000000   0.0000000), wk =   0.0069444

     Dense  grid:     9577 G-vectors     FFT dimensions: (  32,  32,  32)

     Estimated max dynamical RAM per process >       2.84 MB

     Estimated total dynamical RAM >       5.68 MB

     The potential is recalculated from file :
     ./outdir/si.save/charge-density

     Starting wfcs are    8 randomized atomic wfcs

     Band Structure Calculation
     Davidson diagonalization with overlap

     ethr =  1.25E-10,  avg # of iterations = 18.4

     total cpu time spent up to now is        7.9 secs

     End of band structure calculation

          k = 0.0000 0.0000 0.0000 (  1243 PWs)   bands (ev):

    -5.8257   5.7882   5.7882   5.7882   8.3398   8.3398   8.3398   8.7656

          k =-0.0833 0.0833-0.0833 (  1236 PWs)   bands (ev):

    -5.7380   4.9417   5.6516   5.6516   8.3212   8.5414   8.5414   9.4893

          k =-0.1667 0.1667-0.1667 (  1215 PWs)   bands (ev):

    -5.4779   3.4622   5.3575   5.3575   8.0373   8.9625   8.9625  10.9260

          k =-0.2500 0.2500-0.2500 (  1215 PWs)   bands (ev):

    -5.0563   1.9678   5.0584   5.0584   7.7150   9.2634   9.2634  12.3903

          k =-0.3333 0.3333-0.3333 (  1218 PWs)   bands (ev):

    -4.5029   0.6117   4.8243   4.8243   7.4522   9.2900   9.2900  13.4838

          k =-0.4167 0.4167-0.4167 (  1191 PWs)   bands (ev):

    -3.9118  -0.4717   4.6794   4.6794   7.2859   9.1979   9.1979  13.5443

          k = 0.5000-0.5000 0.5000 (  1194 PWs)   bands (ev):

    -3.5971  -0.9520   4.6307   4.6307   7.2295   9.1504   9.1504  13.4765

          k = 0.0000 0.1667 0.0000 (  1227 PWs)   bands (ev):

    -5.7087   5.0780   5.3821   5.3821   8.0797   8.8899   8.8899   9.4284

          k =-0.0833 0.2500-0.0833 (  1213 PWs)   bands (ev):

    -5.5055   3.8893   5.0340   5.2033   8.0964   8.8985   9.4079  10.4424

          k =-0.1667 0.3333-0.1667 (  1208 PWs)   bands (ev):

    -5.1362   2.4407   4.7314   4.8901   8.1750   8.9213   9.7920  11.1113

          k =-0.2500 0.4167-0.2500 (  1211 PWs)   bands (ev):

    -4.6216   1.0573   4.5267   4.5488   8.0019   9.0575   9.8398  11.6956

          k =-0.3333 0.5000-0.3333 (  1211 PWs)   bands (ev):

    -4.0238  -0.1239   4.2631   4.4371   7.8296   9.0572   9.6715  12.7050

          k = 0.5833-0.4167 0.5833 (  1197 PWs)   bands (ev):

    -3.5598  -0.8572   4.0670   4.4639   7.7452   9.0715   9.4879  13.6088

          k = 0.5000-0.3333 0.5000 (  1201 PWs)   bands (ev):

    -3.6734  -0.6887   3.9780   4.5995   7.7670   9.1859   9.3805  13.7166

          k = 0.4167-0.2500 0.4167 (  1203 PWs)   bands (ev):

    -4.2259   0.2405   4.0084   4.8290   7.8943   9.3380   9.3790  13.1127

          k = 0.3333-0.1667 0.3333 (  1210 PWs)   bands (ev):

    -4.8080   1.5041   4.1673   5.1271   8.1150   9.2364   9.5018  12.1319

          k = 0.2500-0.0833 0.2500 (  1218 PWs)   bands (ev):

    -5.2777   2.9089   4.4662   5.4440   8.3951   8.9297   9.2636  11.2972

          k = 0.1667-0.0000 0.1667 (  1219 PWs)   bands (ev):

    -5.5927   4.2172   4.9721   5.6714   8.5817   8.6024   8.7214  10.3201

          k = 0.0000 0.3333 0.0000 (  1219 PWs)   bands (ev):

    -5.3594   3.7472   4.6529   4.6529   7.5240   9.9273  10.0447  10.0447

          k =-0.0833 0.4167-0.0833 (  1212 PWs)   bands (ev):

    -5.0446   2.7056   4.3101   4.3308   7.5422   9.5959  10.4086  10.5938

          k =-0.1667 0.5000-0.1667 (  1218 PWs)   bands (ev):

    -4.5755   1.4509   3.8705   4.1185   7.7744   9.7453  10.2820  10.7787

          k =-0.2500 0.5833-0.2500 (  1208 PWs)   bands (ev):

    -3.9934   0.2687   3.4462   4.0353   7.8192   9.9258  10.6281  10.7958

          k = 0.6667-0.3333 0.6667 (  1201 PWs)   bands (ev):

    -3.4392  -0.6216   3.1152   4.0845   7.8440   9.8103  10.3768  12.1029

          k = 0.5833-0.2500 0.5833 (  1202 PWs)   bands (ev):

    -3.3318  -0.7724   2.9124   4.2590   7.9712   9.7773  10.1594  13.6062

          k = 0.5000-0.1667 0.5000 (  1192 PWs)   bands (ev):

    -3.8046  -0.0509   2.8639   4.5404   8.2083   9.8436   9.9881  12.8913

          k = 0.4167-0.0833 0.4167 (  1207 PWs)   bands (ev):

    -4.4014   1.0451   3.0128   4.8921   8.5055   9.7442   9.9031  11.7574

          k = 0.3333 0.0000 0.3333 (  1209 PWs)   bands (ev):

    -4.9121   2.1421   3.4925   5.2400   8.7250   9.3044   9.5717  11.3026

          k = 0.0000 0.5000 0.0000 (  1198 PWs)   bands (ev):

    -4.7839   2.3064   3.9826   3.9826   6.9777   8.9413  11.4077  11.4077

          k =-0.0833 0.5833-0.0833 (  1218 PWs)   bands (ev):

    -4.3639   1.4307   3.5374   3.7445   7.0595   8.6074  11.6705  11.8878

          k =-0.1667 0.6667-0.1667 (  1204 PWs)   bands (ev):

    -3.8120   0.4459   2.9324   3.6399   7.2804   9.0510  11.5254  11.8751

          k = 0.7500-0.2500 0.7500 (  1209 PWs)   bands (ev):

    -3.2167  -0.4363   2.4074   3.6754   7.3700  10.2111  11.3494  11.6229

          k = 0.6667-0.1667 0.6667 (  1198 PWs)   bands (ev):

    -2.9120  -0.8269   2.0605   3.8468   7.5389  11.1501  11.3367  11.8013

          k = 0.5833-0.0833 0.5833 (  1195 PWs)   bands (ev):

    -3.2685  -0.3589   1.9518   4.1379   7.8415  11.0298  11.1113  12.7752

          k = 0.5000 0.0000 0.5000 (  1203 PWs)   bands (ev):

    -3.8624   0.4288   2.2101   4.5123   8.2320  10.4959  10.8294  11.7403

          k = 0.0000 0.6667 0.0000 (  1218 PWs)   bands (ev):

    -3.9926   0.8620   3.4738   3.4738   6.5975   7.8565  12.8660  12.8660

          k =-0.0833 0.7500-0.0833 (  1211 PWs)   bands (ev):

    -3.4787   0.1046   3.0150   3.3357   6.7579   7.7216  13.1627  13.2453

          k = 0.8333-0.1667 0.8333 (  1207 PWs)   bands (ev):

    -2.8766  -0.6345   2.3268   3.3407   6.9366   8.5289  13.0457  13.0917

          k = 0.7500-0.0833 0.7500 (  1202 PWs)   bands (ev):

    -2.4337  -1.1011   1.7780   3.4875   7.1066   9.9277  12.7481  12.8829

          k = 0.6667 0.0000 0.6667 (  1196 PWs)   bands (ev):

    -2.6967  -0.8235   1.5858   3.7637   7.4158  11.5451  12.1249  12.6604

          k = 0.0000 0.8333 0.0000 (  1198 PWs)   bands (ev):

    -3.0024  -0.5355   3.1599   3.1599   6.4576   7.0631  14.3738  14.3738

          k = 0.9167-0.0833 0.9167 (  1200 PWs)   bands (ev):

    -2.4133  -1.1982   2.7555   3.1271   6.6590   7.2072  14.6244  14.6871

          k = 0.8333 0.0000 0.8333 (  1202 PWs)   bands (ev):

    -1.9828  -1.5837   2.1252   3.2393   6.8147   8.3568  14.0854  14.5200

          k = 0.0000-1.0000 0.0000 (  1186 PWs)   bands (ev):

    -1.8384  -1.8384   3.0541   3.0541   6.6022   6.6022  15.5431  15.5431

          k =-0.1667 0.3333 0.0000 (  1210 PWs)   bands (ev):

    -5.2469   3.1003   4.2358   5.1049   8.1275   9.1923   9.8663  10.6257

          k =-0.2500 0.4167-0.0833 (  1212 PWs)   bands (ev):

    -4.8273   1.9059   3.7179   4.8421   8.3864   9.1888  10.2722  10.6647

          k =-0.3333 0.5000-0.1667 (  1207 PWs)   bands (ev):

    -4.2756   0.6580   3.4494   4.5303   8.3952   9.1457  10.3381  11.2816

          k = 0.5833-0.4167 0.7500 (  1204 PWs)   bands (ev):

    -3.6830  -0.3842   3.3204   4.2963   8.3191   9.0081  10.2706  12.4442

          k = 0.5000-0.3333 0.6667 (  1198 PWs)   bands (ev):

    -3.3640  -0.8568   3.2837   4.2095   8.2886   8.9415  10.2299  13.6976

          k =-0.1667 0.5000 0.0000 (  1220 PWs)   bands (ev):

    -4.6779   1.9286   3.5676   4.2290   7.6069   9.3014  10.5093  11.2952

          k =-0.2500 0.5833-0.0833 (  1208 PWs)   bands (ev):

    -4.1665   0.9201   3.0475   3.9563   7.9324   9.5221  10.2568  11.6797

          k = 0.6667-0.3333 0.8333 (  1204 PWs)   bands (ev):

    -3.5685  -0.0858   2.6976   3.7572   8.0547   9.9421  10.5259  11.6722

          k = 0.5833-0.2500 0.7500 (  1200 PWs)   bands (ev):

    -3.0980  -0.7555   2.4594   3.7399   8.1750   9.6779  11.5654  11.9591

          k = 0.5000-0.1667 0.6667 (  1200 PWs)   bands (ev):

    -3.2264  -0.5781   2.3495   3.9036   8.4057   9.5025  11.4743  12.3569

          k = 0.4167-0.0833 0.5833 (  1203 PWs)   bands (ev):

    -3.7879   0.2555   2.4295   4.2047   8.7332   9.3689  10.9885  11.4628

          k = 0.3333 0.0000 0.5000 (  1214 PWs)   bands (ev):

    -4.3651   1.1947   2.8348   4.5669   8.9742   9.0686  10.4358  11.0144

          k =-0.1667 0.6667-0.0000 (  1220 PWs)   bands (ev):

    -3.8984   0.6950   3.0772   3.4845   7.2313   8.3190  11.7034  12.8187

          k = 0.7500-0.2500 0.9167 (  1206 PWs)   bands (ev):

    -3.3179  -0.1088   2.5178   3.2792   7.5636   8.8164  11.4192  13.1806

          k = 0.6667-0.1667 0.8333 (  1198 PWs)   bands (ev):

    -2.7572  -0.7901   2.0211   3.2861   7.7159  10.0701  11.1327  13.1073

          k = 0.5833-0.0833 0.7500 (  1196 PWs)   bands (ev):

    -2.6924  -0.8552   1.7476   3.4751   7.9597  10.7832  11.7377  12.3642

          k = 0.5000 0.0000 0.6667 (  1194 PWs)   bands (ev):

    -3.2044  -0.2895   1.8320   3.8039   8.3281  10.3682  11.2019  12.4953

          k = 0.8333-0.1667 1.0000 (  1205 PWs)   bands (ev):

    -2.9293  -0.5725   2.8043   2.9933   7.0761   7.5932  13.0464  14.3648

          k = 0.7500-0.0833 0.9167 (  1198 PWs)   bands (ev):

    -2.3281  -1.1920   2.2137   2.9511   7.3664   8.4523  12.7440  14.1525

          k = 0.6667 0.0000 0.8333 (  1201 PWs)   bands (ev):

    -2.1871  -1.2961   1.7430   3.1394   7.5937   9.9351  12.2967  12.6847

          k =-0.1667-1.0000 0.0000 (  1204 PWs)   bands (ev):

    -1.8038  -1.8038   2.7707   2.7707   7.1856   7.1856  14.4634  14.4634

          k = 0.6667-0.3333 1.0000 (  1206 PWs)   bands (ev):

    -3.6253   0.2592   2.3843   3.5999   8.6356   9.5204   9.9250  12.6860

          k = 0.5833-0.2500 0.9167 (  1204 PWs)   bands (ev):

    -3.0293  -0.4792   2.0496   3.2814   9.0124   9.5233  10.4680  13.1087

          k = 0.5000-0.1667 0.8333 (  1198 PWs)   bands (ev):

    -2.6880  -0.8856   1.9578   3.1589   9.1704   9.2815  11.8058  12.1535

          k = 0.6667-0.1667 1.0000 (  1201 PWs)   bands (ev):

    -2.7276  -0.7131   2.1961   2.7904   8.4800   8.8936  11.0591  13.8899

          k = 0.5833-0.0833 0.9167 (  1204 PWs)   bands (ev):

    -2.2298  -1.1997   1.8996   2.6434   8.8197  10.0631  10.7828  12.1482

          k = 0.5000 0.0000 0.8333 (  1197 PWs)   bands (ev):

    -2.4525  -0.9768   1.7806   2.8572   9.1129  10.2229  10.7003  11.9037

          k =-0.3333-1.0000 0.0000 (  1200 PWs)   bands (ev):

    -1.7300  -1.7300   2.3173   2.3173   8.5551   8.5551  12.4051  12.4051

          k =-0.5000-1.0000 0.0000 (  1216 PWs)   bands (ev):

    -1.6905  -1.6905   2.1229   2.1229  10.0646  10.0646  10.6618  10.6618

     the Fermi energy is     6.1942 ev

     Writing output data file si.save/

     init_run     :      0.09s CPU      0.14s WALL (       1 calls)
     electrons    :      6.95s CPU      7.32s WALL (       1 calls)

     Called by init_run:
     wfcinit      :      0.00s CPU      0.00s WALL (       1 calls)
     potinit      :      0.02s CPU      0.06s WALL (       1 calls)
     hinit0       :      0.05s CPU      0.05s WALL (       1 calls)

     Called by electrons:
     c_bands      :      6.93s CPU      7.30s WALL (       1 calls)
     v_of_rho     :      0.02s CPU      0.02s WALL (       1 calls)

     Called by c_bands:
     init_us_2    :      0.01s CPU      0.01s WALL (      72 calls)
     cegterg      :      6.45s CPU      6.72s WALL (      90 calls)

     Called by sum_band:

     Called by *egterg:
     h_psi        :      5.40s CPU      5.66s WALL (    1486 calls)
     g_psi        :      0.03s CPU      0.03s WALL (    1324 calls)
     cdiaghg      :      0.32s CPU      0.33s WALL (    1396 calls)

     Called by h_psi:
     h_psi:pot    :      5.38s CPU      5.64s WALL (    1486 calls)
     h_psi:calbec :      0.16s CPU      0.17s WALL (    1486 calls)
     vloc_psi     :      5.12s CPU      5.36s WALL (    1486 calls)
     add_vuspsi   :      0.10s CPU      0.10s WALL (    1486 calls)

     General routines
     calbec       :      0.16s CPU      0.16s WALL (    1486 calls)
     fft          :      0.01s CPU      0.01s WALL (      10 calls)
     fftw         :      4.71s CPU      4.93s WALL (   15850 calls)
     davcio       :      0.01s CPU      0.07s WALL (     144 calls)

     Parallel routines
     fft_scatt_xy :      0.52s CPU      0.55s WALL (   15860 calls)
     fft_scatt_yz :      0.90s CPU      0.95s WALL (   15860 calls)

     PWSCF        :      7.44s CPU      7.91s WALL


   This run was terminated on:   0: 8:22   4Dec2019            

=------------------------------------------------------------------------------=
   JOB DONE.
=------------------------------------------------------------------------------=
